/*--------------------------------*- C++ -*----------------------------------*\
| =========                 |                                                 |
| \\      /  F ield         | OpenFOAM: The Open Source CFD Toolbox           |
|  \\    /   O peration     | Version:  2.3.0                                 |
|   \\  /    A nd           | Web:      www.OpenFOAM.org                      |
|    \\/     M anipulation  |                                                 |
\*---------------------------------------------------------------------------*/
FoamFile
{
    version     2.0;
    format      ascii;
    class       volScalarField;
    location    "0.02";
    object      alphaSgs;
}
// * * * * * * * * * * * * * * * * * * * * * * * * * * * * * * * * * * * * * //

dimensions      [1 -1 -1 0 0 0 0];

internalField   nonuniform List<scalar> 
5000
(
4.38496e-08
7.16525e-08
7.19963e-08
1.02869e-07
9.7273e-08
3.77246e-08
2.82026e-08
3.77518e-08
1.24616e-08
3.00714e-09
1.12117e-08
2.33545e-08
3.37489e-08
3.7784e-08
9.97739e-09
2.36846e-08
2.27272e-08
3.19167e-08
2.45638e-08
2.71119e-08
4.53288e-08
6.78672e-08
6.89724e-08
2.42356e-08
1.3491e-08
7.14845e-09
1.13732e-08
2.85016e-08
2.57495e-08
4.23984e-08
4.80911e-08
3.55692e-08
1.68063e-08
3.10518e-08
3.15432e-08
3.59791e-08
4.69503e-08
5.79221e-08
7.65755e-08
1.11185e-07
2.26568e-08
4.5918e-08
4.38097e-08
5.50909e-08
6.23214e-08
6.60222e-08
8.76586e-08
1.0072e-07
3.85735e-08
1.14591e-07
3.37826e-08
2.04532e-08
4.97956e-08
6.42542e-08
6.2629e-08
8.40946e-08
4.86207e-08
4.84632e-08
2.77691e-08
2.06935e-08
9.86057e-09
1.12748e-08
2.38975e-08
2.15956e-08
3.17091e-08
5.34633e-08
1.07482e-07
5.74315e-08
9.60943e-08
1.51103e-07
1.66437e-07
2.12772e-07
1.53053e-07
2.00765e-08
2.78759e-08
2.85873e-08
3.9042e-08
2.55091e-08
3.50954e-08
2.46582e-08
2.35816e-08
9.36807e-09
3.13412e-08
2.02381e-08
2.50769e-08
5.10968e-08
4.9253e-08
4.70288e-08
5.13991e-08
4.7869e-08
1.34062e-08
3.94098e-08
4.22737e-08
5.82249e-08
7.87793e-08
6.81385e-08
4.41796e-08
3.94075e-08
6.43855e-08
9.89001e-10
4.69907e-08
1.74423e-07
1.2905e-07
1.39422e-07
9.76601e-08
1.61897e-08
3.50921e-08
7.03069e-08
6.12173e-08
9.07793e-08
8.26873e-08
7.62323e-08
9.75343e-08
1.4073e-07
8.47545e-08
6.70524e-08
4.05843e-08
4.99512e-08
2.53665e-08
3.88594e-08
2.74138e-08
5.20757e-08
4.93154e-08
7.07274e-08
5.9629e-08
5.33909e-08
3.18476e-08
3.35989e-08
5.43498e-08
9.97268e-08
8.82396e-08
1.043e-07
4.79749e-08
9.24611e-08
9.976e-08
1.04652e-07
9.74884e-08
1.11257e-07
1.3935e-07
2.54502e-07
2.47604e-07
1.50206e-07
4.97334e-08
6.15652e-08
8.99034e-08
1.22691e-07
1.5106e-07
1.65222e-07
2.43029e-07
8.66735e-08
1.27372e-07
2.16215e-07
1.58582e-07
2.41416e-07
1.97856e-07
2.67652e-07
2.16182e-07
1.31268e-07
5.55464e-08
3.17737e-08
1.82731e-08
1.37674e-08
1.52677e-08
2.14779e-08
3.64105e-08
6.334e-08
9.9315e-08
9.39044e-08
9.94874e-08
2.02711e-07
3.70235e-07
5.69411e-07
6.8211e-07
1.16216e-07
1.31537e-08
8.08864e-09
3.55715e-08
3.51245e-08
3.54116e-08
2.77405e-08
1.83392e-08
3.67789e-08
4.14195e-08
5.79133e-08
9.15285e-08
1.8385e-07
2.65367e-07
3.18005e-07
3.21109e-07
1.87538e-07
1.84275e-07
1.63022e-07
1.77616e-07
1.78406e-07
1.88485e-07
9.07529e-08
8.46018e-08
1.09862e-07
1.86404e-07
4.05877e-08
1.33205e-06
3.80826e-07
1.5381e-07
1.61574e-07
1.81701e-07
1.9064e-07
1.69857e-07
1.68655e-07
9.42679e-08
8.03328e-08
1.3826e-07
1.98724e-08
6.37534e-08
1.25894e-07
1.45282e-07
5.6286e-08
1.23377e-08
2.69083e-08
3.8801e-08
5.958e-08
8.99298e-08
1.50911e-07
1.26622e-07
9.19984e-08
8.64333e-08
6.50015e-08
4.42809e-08
6.21477e-08
9.69236e-08
1.60644e-07
1.82945e-07
1.74859e-07
6.9696e-08
2.78533e-08
1.5332e-08
2.76638e-08
5.93304e-08
1.3066e-07
1.87577e-07
2.70352e-07
3.01081e-07
1.93241e-07
8.4347e-08
5.58572e-08
5.94761e-08
8.07438e-08
1.08274e-07
1.3522e-07
8.59883e-08
1.12238e-07
1.33925e-07
1.38847e-07
3.41219e-07
5.54424e-07
5.15632e-07
5.19874e-07
2.96706e-07
1.16318e-07
5.22775e-08
3.92558e-08
4.65594e-08
5.97335e-08
5.97295e-08
5.70378e-08
8.45782e-08
8.07229e-08
9.57502e-08
1.15186e-07
1.05149e-07
1.47002e-07
2.91706e-07
5.82015e-07
1.10963e-06
8.8197e-07
1.1511e-07
3.64963e-09
1.40346e-08
1.34891e-08
2.30616e-08
3.01527e-08
4.6506e-08
5.47485e-08
7.113e-08
8.99383e-08
7.71598e-08
9.23951e-08
2.69361e-07
5.042e-07
7.58342e-07
8.22026e-07
2.53048e-07
2.71927e-07
2.49029e-07
3.0234e-07
2.44496e-07
1.87773e-07
1.13226e-07
1.37729e-07
1.57598e-07
1.16585e-07
1.0711e-07
4.1597e-07
2.87016e-07
2.7856e-07
1.36957e-07
2.01407e-07
1.63471e-07
1.8644e-07
3.22954e-07
2.30235e-07
2.44744e-07
1.12844e-07
1.19687e-07
1.06687e-07
1.30428e-07
4.42765e-08
2.99912e-08
3.93925e-08
8.69311e-08
2.79658e-08
3.74992e-08
1.15337e-07
1.16872e-07
8.07292e-08
4.02393e-08
5.62855e-08
6.37436e-08
8.54188e-08
1.27933e-07
2.11613e-07
2.46519e-07
2.24073e-07
1.8675e-08
2.06256e-08
5.2166e-08
1.62018e-07
1.26064e-07
1.88509e-07
2.63964e-07
4.18339e-07
4.46912e-07
1.52946e-07
8.39392e-08
4.59378e-08
5.40777e-08
7.9747e-08
1.02665e-07
1.18149e-07
1.01276e-07
7.89341e-08
6.72952e-08
5.86543e-08
1.54144e-07
4.9849e-07
8.67077e-07
8.94073e-07
4.33217e-07
1.44774e-07
8.82396e-08
7.96677e-08
9.26635e-08
9.32354e-08
9.24316e-08
8.90747e-08
9.53955e-08
9.69968e-08
1.27919e-07
1.33386e-07
9.72411e-08
1.1845e-07
2.52815e-07
4.52537e-07
9.53212e-07
1.41845e-06
5.7945e-07
2.27425e-07
4.39353e-08
1.41484e-08
2.45375e-08
3.72511e-08
5.23145e-08
4.7757e-08
8.37057e-08
1.28887e-07
1.4463e-07
6.75383e-08
1.15524e-07
3.23516e-07
7.71494e-07
1.27017e-06
1.01922e-06
2.32468e-07
1.86648e-07
2.20512e-07
2.76907e-07
2.4957e-07
2.12379e-07
1.6711e-07
1.41007e-07
1.51382e-07
1.76534e-06
5.45639e-07
4.63353e-07
2.13465e-07
3.18399e-07
3.17136e-07
3.58409e-07
3.99853e-07
1.9576e-07
1.33828e-07
2.37045e-07
2.01151e-07
2.51873e-07
2.00353e-07
2.07918e-07
7.34161e-08
6.66624e-08
6.9818e-08
1.99453e-08
7.68739e-08
1.37698e-07
2.22149e-07
2.98967e-07
3.19275e-07
2.53751e-07
2.53969e-07
2.22792e-07
2.30043e-07
2.58409e-07
3.52526e-07
3.96745e-07
3.57657e-07
9.00694e-08
1.2362e-07
1.41745e-07
1.52706e-07
1.77925e-07
2.54435e-07
3.59232e-07
5.47893e-07
4.81413e-07
7.37578e-08
6.03649e-08
3.34046e-08
4.92533e-08
5.71886e-08
7.4408e-08
9.63343e-08
6.41025e-08
5.73048e-08
7.85875e-08
7.29035e-08
4.95945e-08
3.90919e-07
1.17184e-06
9.28334e-07
7.62294e-07
6.69398e-08
6.65183e-08
3.74679e-08
2.13487e-08
1.73917e-08
2.34619e-08
4.03335e-08
6.55084e-08
8.08855e-08
1.40126e-07
1.53591e-07
1.33776e-07
1.47655e-07
1.91596e-07
3.76586e-07
6.8e-07
1.78326e-06
5.77999e-07
9.29853e-07
1.40625e-07
2.68115e-08
3.42827e-08
5.13572e-08
5.95014e-08
6.69268e-08
6.92591e-08
7.01918e-08
4.93405e-08
4.15558e-08
8.06297e-08
1.62216e-07
4.79288e-07
1.04845e-06
1.6813e-06
5.1857e-07
2.72522e-07
1.50192e-07
1.82501e-07
2.04898e-07
2.16915e-07
1.96117e-07
1.85755e-07
2.65996e-08
1.54456e-07
1.92702e-07
2.22445e-07
4.11912e-07
5.95829e-07
2.58394e-08
1.6713e-07
1.61196e-07
2.42407e-07
1.52521e-07
2.42012e-07
2.83026e-07
2.67754e-07
2.22269e-07
3.23925e-07
3.03306e-07
2.31368e-07
1.47631e-07
8.87263e-08
2.70274e-08
1.33323e-07
2.70737e-07
2.44932e-07
6.64266e-08
1.14322e-07
1.77297e-07
1.41015e-07
1.52603e-07
2.42646e-07
4.04339e-07
7.1683e-07
7.68117e-07
2.78753e-07
6.23293e-08
1.06808e-07
1.56517e-07
2.31875e-07
3.56554e-07
5.09177e-07
6.74811e-07
5.91986e-07
6.86855e-08
7.06387e-08
3.51144e-08
5.0093e-08
6.29845e-08
8.29616e-08
9.0551e-08
1.38546e-07
1.18813e-07
1.49913e-07
9.68958e-08
6.99851e-08
3.53899e-07
1.24739e-06
1.00426e-06
1.21679e-06
1.08618e-07
4.59535e-08
1.57883e-08
1.04147e-08
8.35171e-09
1.91895e-08
3.18351e-08
6.52849e-08
8.74352e-08
1.37814e-07
1.26798e-07
1.12008e-07
1.53203e-07
1.84066e-07
8.36742e-08
4.29031e-07
1.00068e-06
1.89315e-06
6.34828e-07
8.14803e-07
2.70733e-08
2.7139e-08
5.23356e-08
6.85562e-08
7.26197e-08
6.5522e-08
7.83198e-08
8.75062e-08
7.39963e-08
7.01811e-08
7.98249e-08
2.41919e-07
5.94968e-07
1.54421e-06
1.55608e-06
6.73665e-07
5.45788e-08
1.02145e-07
1.58749e-07
1.21166e-07
1.80727e-07
1.94832e-07
6.64163e-08
8.68022e-07
3.29896e-07
1.61326e-07
2.36978e-07
2.62368e-07
7.39855e-08
2.79524e-08
7.26731e-08
1.3642e-07
2.97186e-07
3.4625e-07
3.57871e-07
4.33222e-07
4.61462e-07
9.453e-07
8.20993e-08
2.27241e-07
6.5496e-08
6.89954e-08
1.14565e-07
1.93905e-07
3.39008e-07
2.61326e-07
1.60016e-07
1.13115e-08
5.37655e-09
1.84408e-08
4.99166e-08
1.13093e-07
1.59369e-07
5.76954e-07
1.74061e-06
1.55437e-06
9.79118e-07
2.71109e-07
2.22539e-07
2.15113e-07
4.48543e-07
6.25871e-07
7.53572e-07
6.65457e-07
9.92202e-08
4.44424e-08
2.41222e-08
3.77614e-08
5.21058e-08
7.94492e-08
1.34452e-07
1.29699e-07
1.05316e-07
2.02099e-07
1.52692e-07
9.42682e-08
2.8299e-07
1.23063e-06
1.24074e-06
1.15849e-06
1.5449e-07
5.28749e-08
9.68402e-09
7.19189e-09
8.86455e-09
1.63997e-08
3.53483e-08
7.04195e-08
8.32339e-08
1.31757e-07
1.45039e-07
1.68445e-07
1.19064e-07
2.41556e-07
1.5481e-07
8.03791e-08
4.97877e-07
1.83169e-06
7.12941e-07
4.27311e-07
5.63703e-09
2.15824e-08
3.59597e-08
5.87376e-08
7.02966e-08
6.55055e-08
7.14009e-08
6.91437e-08
7.69635e-08
7.52429e-08
9.89397e-08
8.60436e-08
3.35928e-07
1.02108e-06
1.84159e-06
4.46479e-07
1.65467e-07
1.29558e-07
1.97114e-07
1.79483e-07
1.61153e-07
1.76413e-07
4.30245e-08
7.40852e-07
9.8947e-07
7.63134e-07
2.87947e-07
3.1464e-07
5.07156e-07
2.69815e-07
3.39994e-07
4.09853e-07
6.71669e-07
1.26405e-06
7.83514e-07
3.86257e-07
4.08024e-07
6.46325e-07
3.70837e-07
2.67437e-07
1.33176e-07
2.23728e-07
5.39503e-08
1.98139e-07
2.64113e-07
2.80508e-07
2.0529e-07
8.58091e-08
5.87455e-08
4.26584e-08
7.90618e-08
1.10672e-07
1.03005e-07
8.24666e-08
1.0104e-06
2.20666e-06
2.43568e-06
1.61045e-06
2.30046e-06
7.48516e-07
6.68478e-07
8.30469e-07
8.83613e-07
8.72883e-07
2.55113e-07
7.20004e-08
2.50778e-08
3.13087e-08
4.5172e-08
8.27337e-08
1.12744e-07
1.7039e-07
1.78505e-07
3.07764e-07
2.07529e-07
1.04448e-07
2.48497e-07
1.05875e-06
1.43692e-06
1.25608e-06
2.20646e-07
6.70303e-08
1.49495e-08
9.54978e-09
7.81956e-09
1.6915e-08
3.51085e-08
7.15482e-08
1.20895e-07
1.60747e-07
2.69925e-07
4.35606e-07
4.47693e-07
4.44806e-07
4.33046e-07
2.20494e-07
3.39033e-07
8.13047e-07
1.94829e-06
1.96063e-07
3.31994e-07
3.36909e-08
4.90636e-08
4.7915e-08
6.0429e-08
1.06645e-07
6.56253e-08
1.27998e-07
1.30142e-07
1.78166e-07
2.24045e-07
1.16232e-07
2.1609e-07
7.0275e-07
1.40933e-06
8.44554e-07
4.24803e-07
1.69248e-07
2.4099e-07
1.97247e-07
1.65099e-07
2.19628e-07
3.71532e-08
1.12281e-06
2.45492e-07
2.53456e-07
3.60731e-07
3.42652e-07
4.82482e-08
7.70532e-08
6.15886e-08
1.00377e-07
8.8488e-08
1.94233e-07
1.97742e-06
1.63734e-06
5.55399e-07
6.11045e-07
7.84966e-07
6.59082e-07
2.42347e-07
2.7979e-07
4.69736e-07
2.58345e-07
2.30809e-07
2.83749e-07
2.85027e-07
1.19753e-07
1.47161e-07
5.14468e-08
7.49484e-08
4.48317e-08
5.39055e-08
6.74403e-08
1.89684e-07
5.38682e-07
1.44209e-06
2.43282e-06
2.31635e-06
3.5354e-06
1.60566e-06
9.45002e-07
9.1253e-07
9.08584e-07
4.88603e-07
1.48631e-07
4.03459e-08
4.24962e-08
5.03819e-08
7.58264e-08
1.43876e-07
1.57063e-07
1.83987e-07
3.56826e-07
2.37553e-07
1.91754e-07
2.24899e-07
8.40376e-07
1.78587e-06
1.33219e-06
4.25609e-07
8.85799e-08
2.23589e-08
8.55578e-09
9.84202e-09
1.45541e-08
3.07794e-08
1.27481e-07
1.4908e-07
3.79753e-07
5.99099e-07
8.37885e-07
9.51556e-07
6.1262e-07
4.93556e-07
3.89548e-07
2.08082e-07
3.82555e-07
1.51399e-06
7.42878e-07
3.93303e-07
3.33319e-08
4.04244e-08
4.8327e-08
6.55024e-08
9.68735e-08
1.94836e-07
3.18823e-07
3.99944e-07
4.58323e-07
5.23374e-07
5.11348e-07
5.03227e-07
6.39993e-07
1.19749e-06
7.08944e-07
5.13218e-07
1.2259e-07
1.83869e-07
1.54808e-07
1.63413e-07
2.32173e-07
1.56826e-08
1.94472e-07
1.89341e-07
7.72947e-07
1.39234e-06
8.2533e-08
2.14972e-07
1.71294e-07
1.77509e-07
1.93915e-07
1.18987e-07
4.94742e-07
1.46285e-06
1.77225e-06
2.6245e-06
1.93063e-06
1.38615e-06
4.47836e-07
1.27639e-07
8.36169e-08
1.02022e-06
1.01406e-06
4.31595e-07
4.80463e-07
2.8315e-07
1.34842e-07
9.49952e-08
8.82162e-08
8.06265e-08
5.67754e-08
7.99962e-08
1.32718e-07
3.0046e-07
4.907e-07
7.07271e-07
5.05831e-07
2.16416e-06
2.65844e-06
3.14194e-06
2.05868e-06
1.32898e-06
1.31091e-06
6.27762e-07
2.0979e-07
5.57489e-08
4.77185e-08
5.57676e-08
7.96472e-08
1.24331e-07
1.8947e-07
2.72501e-07
2.8052e-07
1.9589e-07
2.11393e-07
2.23189e-07
5.77308e-07
1.23851e-06
1.37029e-06
8.36274e-07
1.02571e-07
3.83542e-08
1.69786e-08
7.31972e-09
1.61675e-08
5.32747e-08
1.86571e-07
3.00225e-07
7.28187e-07
1.09531e-06
1.17143e-06
9.88103e-07
6.61525e-07
4.77236e-07
3.68394e-07
3.39932e-07
8.2083e-07
1.75425e-06
4.09111e-07
3.57986e-07
9.84146e-09
4.66537e-08
7.53297e-08
1.88857e-07
3.90073e-07
4.78149e-07
6.3263e-07
6.77621e-07
6.93471e-07
7.16287e-07
7.77554e-07
8.40659e-07
1.07628e-06
1.28136e-06
6.09099e-07
2.13582e-07
6.20136e-08
1.38093e-07
1.10516e-07
1.69146e-07
2.94935e-07
1.60129e-08
4.61021e-07
1.10716e-06
1.1681e-06
1.74223e-06
1.84205e-06
1.49324e-06
1.33917e-06
8.00829e-07
5.46673e-07
5.07932e-07
7.51379e-07
6.25128e-07
1.41728e-06
1.39939e-06
1.26324e-06
2.37338e-06
4.62676e-07
1.82857e-07
1.26345e-07
1.13088e-07
3.76961e-07
8.46319e-07
7.53275e-07
3.5509e-07
2.45638e-07
1.64293e-07
1.44672e-07
1.36302e-07
1.17824e-07
1.80745e-07
4.29641e-07
4.91909e-07
5.53144e-07
6.447e-07
6.95913e-07
4.69355e-07
2.44728e-06
1.74494e-06
2.70604e-06
1.93892e-06
1.73933e-06
7.16552e-07
2.86273e-07
7.43868e-08
5.80931e-08
5.65307e-08
8.31248e-08
1.4155e-07
1.90841e-07
1.87915e-07
1.95156e-07
4.25095e-07
4.44427e-08
1.8058e-07
4.67001e-07
1.25535e-06
1.72653e-06
5.2157e-07
7.46073e-08
2.40224e-08
9.93337e-09
1.02113e-08
1.94704e-08
9.11948e-08
1.94072e-07
7.71413e-07
9.72404e-07
1.2528e-06
1.2577e-06
9.18177e-07
7.25907e-07
4.95222e-07
3.09217e-07
3.56309e-07
9.28312e-07
1.82384e-06
3.61758e-07
2.46483e-07
4.30299e-08
9.68188e-08
2.32502e-07
5.07688e-07
6.82252e-07
7.77189e-07
8.24846e-07
8.36086e-07
8.75834e-07
9.32287e-07
1.03716e-06
1.17981e-06
1.42375e-06
1.3082e-06
7.21214e-07
1.48431e-07
9.80923e-08
1.25036e-07
1.08302e-07
1.89294e-07
3.40254e-07
3.89073e-08
1.88102e-07
4.45706e-07
6.64697e-07
6.65149e-07
9.14246e-07
9.95751e-07
6.39091e-07
5.17781e-07
3.39469e-07
5.45777e-07
6.00384e-07
6.3165e-07
7.80581e-07
1.417e-06
1.46441e-06
1.79601e-06
5.13939e-07
2.63716e-07
2.39732e-07
2.27299e-07
8.22902e-07
9.32646e-07
8.60546e-07
5.3844e-07
3.47216e-07
2.711e-07
3.46989e-07
2.66473e-07
2.15768e-07
2.13666e-07
3.5894e-07
4.80631e-07
4.32809e-07
4.60485e-07
8.31008e-07
4.3616e-07
6.18383e-07
1.86614e-06
1.48623e-06
1.78714e-06
1.76394e-06
9.14393e-07
3.87278e-07
1.12752e-07
7.13792e-08
6.45605e-08
7.8213e-08
1.45129e-07
2.45229e-07
1.35959e-07
2.5881e-07
3.39794e-07
2.45406e-07
2.87717e-07
5.32392e-07
1.40906e-06
1.54791e-06
5.16343e-07
5.9855e-08
2.4007e-08
1.73317e-08
1.61492e-08
2.75535e-08
1.04391e-07
3.06094e-07
8.72497e-07
1.22034e-06
1.17526e-06
1.3648e-06
8.97904e-07
7.40274e-07
4.66977e-07
2.63281e-07
4.3848e-07
1.53566e-06
2.03406e-06
5.85197e-07
2.24103e-07
1.28497e-07
2.95794e-07
5.66798e-07
7.70823e-07
8.47085e-07
8.88818e-07
9.0962e-07
9.52236e-07
1.0195e-06
1.13095e-06
1.25168e-06
1.41634e-06
1.46616e-06
1.11035e-06
4.89608e-07
2.31468e-07
2.22543e-07
2.19917e-07
2.78765e-07
1.91262e-07
3.96226e-07
1.39598e-07
6.6315e-08
9.80776e-08
1.81297e-07
2.06015e-07
1.85353e-07
3.31484e-07
1.95456e-07
2.88764e-07
3.60317e-07
4.6199e-07
5.3615e-07
5.96326e-07
8.5106e-07
1.26178e-06
1.61562e-06
1.01207e-06
3.99591e-07
4.10219e-07
4.55946e-07
6.5502e-07
9.35149e-07
1.0209e-06
1.05639e-06
5.81474e-07
4.36838e-07
3.63757e-07
3.54183e-07
2.63837e-07
2.44579e-07
3.72071e-07
4.2201e-07
4.31749e-07
4.47763e-07
6.37773e-07
1.09751e-06
1.10168e-06
6.45747e-07
1.16523e-06
8.04328e-07
1.19625e-06
1.04238e-06
1.29737e-06
4.69866e-07
1.34959e-07
8.35023e-08
5.80551e-08
1.00484e-07
1.92954e-07
3.49273e-07
6.42774e-07
8.09724e-07
6.15021e-07
5.01933e-07
2.38839e-07
5.22094e-07
1.69587e-06
1.62418e-06
6.74075e-07
4.86608e-08
1.22966e-08
7.17226e-09
7.76377e-09
1.66489e-08
9.12062e-08
2.90093e-07
9.09846e-07
1.06802e-06
1.16798e-06
1.18142e-06
8.60146e-07
7.47308e-07
4.56047e-07
3.17479e-07
8.28125e-07
2.06434e-06
1.79586e-06
1.00161e-06
3.40878e-07
3.71587e-07
5.72422e-07
7.94414e-07
8.45951e-07
8.67764e-07
8.89114e-07
9.27781e-07
9.85419e-07
1.07516e-06
1.12613e-06
1.1703e-06
1.14114e-06
1.02632e-06
6.86801e-07
5.14238e-07
4.14425e-07
6.28542e-07
6.55868e-07
6.30183e-07
6.08841e-07
6.10083e-07
4.01877e-07
2.37479e-07
9.03668e-08
2.07887e-07
4.53028e-07
1.65291e-07
3.30056e-07
4.35182e-07
2.90341e-07
3.94106e-07
2.96296e-07
4.58134e-07
5.84157e-07
9.18115e-07
8.01639e-07
9.01476e-07
6.33943e-07
4.00885e-07
5.68062e-07
7.58529e-07
9.96544e-07
9.09381e-07
1.03258e-06
8.59511e-07
7.76185e-07
3.9509e-07
4.688e-07
3.0329e-07
2.17074e-07
3.19546e-07
3.87703e-07
5.13029e-07
3.96537e-07
4.24533e-07
7.8566e-07
8.04582e-07
9.73097e-07
1.32739e-06
5.29867e-07
1.1971e-06
1.30852e-06
8.91281e-07
1.41525e-06
5.30872e-07
1.9027e-07
9.91034e-08
8.01572e-08
1.09437e-07
5.20513e-07
1.20255e-06
1.57743e-06
1.72844e-06
1.00193e-06
7.03571e-07
2.64521e-07
5.67432e-07
1.86774e-06
1.12519e-06
5.58446e-07
3.4663e-08
1.0132e-08
2.26362e-08
3.06705e-08
4.49896e-08
1.36238e-07
3.88558e-07
1.00221e-06
8.74916e-07
1.4143e-06
1.02135e-06
9.59466e-07
9.2178e-07
7.40533e-07
8.19579e-07
1.5603e-06
2.46118e-06
1.61565e-06
6.21428e-07
4.42859e-07
5.82763e-07
7.14167e-07
7.81325e-07
7.85375e-07
8.07434e-07
8.40317e-07
9.24154e-07
9.92576e-07
1.03077e-06
9.91134e-07
9.79546e-07
8.61824e-07
7.01511e-07
5.21839e-07
7.31406e-07
9.17569e-07
1.17783e-06
1.08193e-06
8.5591e-07
7.42171e-07
5.65657e-07
5.19765e-07
4.54149e-08
5.80338e-08
1.20704e-07
1.49742e-07
1.54739e-07
4.51076e-08
1.75986e-08
8.29417e-08
1.84251e-07
2.81693e-07
3.06959e-07
3.85999e-07
4.99434e-07
5.26745e-07
3.6712e-07
3.16552e-07
3.70656e-07
5.27226e-07
7.09986e-07
7.99019e-07
8.87829e-07
9.0289e-07
5.69437e-07
4.10815e-07
3.1344e-07
3.24194e-07
3.03376e-07
2.90177e-07
3.49054e-07
4.55519e-07
3.77735e-07
4.00283e-07
4.17067e-07
7.9821e-07
1.0483e-06
1.03971e-06
1.12257e-06
9.67945e-07
1.34368e-06
1.09307e-06
1.41748e-06
1.31069e-06
5.39951e-07
2.24235e-07
1.06917e-07
1.0748e-07
2.19341e-07
1.20036e-06
1.91425e-06
2.25533e-06
1.89493e-06
1.2815e-06
7.51705e-07
5.43714e-07
7.41913e-07
2.07511e-06
7.8144e-07
3.08589e-07
2.95096e-08
8.93024e-09
1.08834e-08
2.94374e-08
5.92607e-08
2.69877e-07
4.83065e-07
9.96508e-07
5.53988e-07
1.69971e-06
9.65605e-07
1.06684e-06
1.20572e-06
1.28221e-06
1.63454e-06
2.27404e-06
2.17401e-06
8.0888e-07
5.85926e-07
4.77167e-07
6.15173e-07
6.73259e-07
6.48811e-07
6.73454e-07
7.11179e-07
7.81181e-07
8.8235e-07
9.55779e-07
1.02453e-06
1.01575e-06
9.85095e-07
9.94512e-07
9.08573e-07
1.04786e-06
1.28824e-06
1.3241e-06
1.307e-06
1.08606e-06
8.48545e-07
6.5703e-07
6.58121e-07
5.6359e-07
1.62833e-07
9.02394e-08
1.18201e-07
2.79874e-07
1.96958e-07
2.63759e-07
2.66743e-07
1.5357e-07
1.59925e-07
2.08621e-07
2.72745e-07
3.15431e-07
3.87489e-07
1.28918e-07
3.03285e-07
1.20544e-07
3.537e-07
4.75147e-07
4.34438e-07
4.21309e-07
3.74966e-07
2.73355e-07
2.3428e-07
1.6345e-07
3.71659e-07
3.35452e-07
3.35287e-07
3.63842e-07
4.24274e-07
4.5643e-07
4.69323e-07
3.70054e-07
3.98934e-07
6.58468e-07
8.40509e-07
1.1664e-06
1.09722e-06
1.01678e-06
1.01036e-06
1.68001e-06
1.46332e-06
1.28308e-06
4.78938e-07
1.99949e-07
1.21245e-07
1.81552e-07
7.81521e-07
1.56553e-06
2.01438e-06
2.70732e-06
1.94805e-06
1.46629e-06
8.99416e-07
7.18678e-07
1.51643e-06
2.31861e-06
1.12028e-06
2.14074e-07
2.95568e-08
1.78776e-08
3.66102e-08
4.61054e-08
2.16316e-07
3.58798e-07
3.77154e-07
7.75399e-07
1.49728e-06
2.05438e-06
1.31027e-06
1.12223e-06
1.33672e-06
1.64135e-06
2.10562e-06
2.18629e-06
1.21465e-06
4.30596e-07
6.02349e-07
4.88984e-07
5.38324e-07
5.43831e-07
5.52704e-07
5.91696e-07
6.60646e-07
7.61614e-07
8.52199e-07
9.30997e-07
1.04799e-06
1.11304e-06
1.24935e-06
1.31202e-06
1.43174e-06
1.45389e-06
1.34813e-06
1.0535e-06
8.40758e-07
7.25636e-07
1.11738e-06
8.15216e-07
9.15147e-07
9.09081e-07
2.24762e-08
9.71127e-08
1.41339e-07
8.05717e-08
8.45781e-08
4.61341e-08
1.13929e-08
3.21673e-08
1.19424e-07
1.62304e-07
2.02272e-07
2.62781e-07
2.93363e-07
1.67715e-07
1.68983e-07
1.71659e-07
3.11423e-07
2.74886e-07
2.66837e-07
2.48763e-07
2.07953e-07
1.06409e-07
2.13113e-07
3.75133e-07
4.32002e-07
4.17774e-07
4.31592e-07
4.27155e-07
4.45351e-07
4.57172e-07
3.69069e-07
3.5059e-07
3.2758e-07
4.91528e-07
6.92926e-07
1.19288e-06
1.19724e-06
1.3635e-06
1.08108e-06
1.41086e-06
1.51714e-06
9.79148e-07
3.71816e-07
1.83897e-07
1.75218e-07
2.80356e-07
1.39444e-06
2.20161e-06
1.89275e-06
2.39245e-06
1.69761e-06
1.38528e-06
7.36833e-07
8.50178e-07
2.00073e-06
2.08302e-06
7.93605e-07
1.99632e-07
4.06974e-08
2.15083e-08
3.88451e-08
1.56445e-07
2.98597e-07
4.03981e-07
4.93423e-07
7.12579e-07
1.50665e-06
2.03244e-06
1.87513e-06
1.21054e-06
1.39963e-06
1.58598e-06
1.67516e-06
1.49673e-06
7.33542e-07
5.1774e-07
5.10817e-07
4.53751e-07
5.1169e-07
5.10632e-07
5.31147e-07
5.60343e-07
5.73739e-07
5.9985e-07
6.43376e-07
6.85723e-07
7.44969e-07
9.68722e-07
1.1717e-06
1.31221e-06
1.2353e-06
1.0827e-06
7.65668e-07
4.49259e-07
5.0584e-07
7.27916e-07
9.08678e-07
1.25546e-06
1.21003e-06
1.07241e-06
5.58279e-08
7.29422e-08
9.55228e-08
1.30523e-07
1.00404e-07
9.85119e-08
9.55456e-08
1.15015e-07
1.49027e-07
1.82577e-07
2.09324e-07
2.18807e-07
2.36528e-07
1.8698e-07
1.65098e-07
1.42916e-07
2.16166e-07
2.2488e-07
1.75103e-07
1.54766e-07
1.03035e-07
1.26836e-07
2.24725e-07
3.63645e-07
3.91867e-07
4.95379e-07
4.79621e-07
4.88131e-07
4.71245e-07
4.61041e-07
4.1163e-07
3.51707e-07
3.50815e-07
4.31983e-07
4.32175e-07
7.39824e-07
1.31821e-06
1.84174e-06
1.13613e-06
1.13545e-06
1.05488e-06
5.08055e-07
3.25323e-07
1.83451e-07
1.98363e-07
5.00652e-07
1.65777e-06
1.66301e-06
2.46886e-06
1.62015e-06
1.6035e-06
1.45033e-06
1.03471e-06
1.30768e-06
2.30654e-06
1.50293e-06
5.00731e-07
1.39844e-07
3.56888e-08
4.17301e-08
1.1406e-07
1.94522e-07
3.71676e-07
4.8004e-07
5.10866e-07
6.64823e-07
1.16971e-06
2.17644e-06
2.04622e-06
1.40015e-06
1.11524e-06
9.5294e-07
8.03011e-07
6.11155e-07
3.4064e-07
2.55008e-07
4.64142e-07
4.85219e-07
5.18851e-07
5.43137e-07
5.03658e-07
3.5551e-07
2.31907e-07
2.29575e-07
2.60343e-07
2.99814e-07
3.09758e-07
6.50244e-07
6.49513e-07
7.71843e-07
6.35928e-07
4.80148e-07
1.99931e-07
8.97172e-08
4.11282e-07
6.14915e-07
1.17699e-06
1.38193e-06
1.36053e-06
1.08668e-06
5.46812e-08
5.98006e-08
1.49966e-07
9.51152e-08
8.45263e-08
6.38403e-08
1.07834e-07
1.31513e-07
1.90308e-07
2.15118e-07
2.16891e-07
2.08812e-07
1.77128e-07
1.22624e-07
7.78272e-08
1.00325e-07
1.74608e-07
1.85597e-07
1.70064e-07
1.37732e-07
9.42895e-08
1.48173e-07
2.99382e-07
4.2985e-07
5.18799e-07
6.14085e-07
5.53011e-07
4.77329e-07
4.54006e-07
4.49688e-07
3.99115e-07
3.44625e-07
3.55705e-07
3.77797e-07
4.18725e-07
4.88684e-07
8.75963e-07
1.11573e-06
5.27194e-07
5.99614e-07
5.43478e-07
4.19945e-07
2.53746e-07
1.78052e-07
2.2567e-07
7.76853e-07
1.36589e-06
1.21144e-06
2.21993e-06
1.21783e-06
1.17537e-06
1.50967e-06
1.56704e-06
1.79478e-06
1.9887e-06
6.86265e-07
3.30889e-07
1.07672e-07
4.5739e-08
1.01983e-07
2.22605e-07
2.43087e-07
3.80194e-07
4.82703e-07
5.21994e-07
6.4531e-07
9.58903e-07
1.69725e-06
1.90941e-06
1.30015e-06
6.74536e-07
4.55789e-07
2.69718e-07
2.43595e-07
2.43983e-07
4.61451e-07
5.17154e-07
5.57172e-07
5.55887e-07
3.79655e-07
2.20899e-07
7.56509e-08
7.87172e-08
1.05372e-07
1.88365e-07
2.56596e-07
3.83308e-07
4.82265e-07
3.89909e-07
3.10135e-07
6.5603e-08
5.22338e-08
2.94977e-08
7.25911e-08
4.5657e-07
9.01717e-07
9.89563e-07
1.22899e-06
1.39012e-06
1.12866e-06
2.84658e-07
3.76728e-07
4.09852e-07
4.36213e-07
2.64259e-07
2.22572e-07
2.39412e-07
2.66891e-07
2.91096e-07
3.01974e-07
2.77859e-07
2.29093e-07
1.63088e-07
7.63553e-08
7.8838e-09
7.59379e-08
1.78323e-07
2.11569e-07
1.78197e-07
1.39268e-07
8.67158e-08
1.64669e-07
3.07959e-07
4.59142e-07
5.0412e-07
5.53817e-07
5.03393e-07
4.10689e-07
4.24178e-07
4.25815e-07
4.28423e-07
3.94475e-07
4.5236e-07
4.04676e-07
4.27378e-07
4.23783e-07
3.09652e-07
5.31961e-07
6.55312e-07
3.65454e-07
3.90588e-07
2.87068e-07
2.28163e-07
1.82414e-07
3.55727e-07
8.88223e-07
1.17762e-06
1.46458e-06
2.01528e-06
1.31151e-06
1.08477e-06
9.11012e-07
1.23504e-06
1.67878e-06
1.0476e-06
3.75855e-07
2.82214e-07
1.37979e-07
9.50431e-08
2.08113e-07
3.43014e-07
3.44047e-07
3.60912e-07
3.95639e-07
5.26035e-07
6.56142e-07
8.20343e-07
1.15637e-06
1.57397e-06
1.21711e-06
5.57513e-07
1.79623e-07
1.4144e-07
1.86725e-07
2.6291e-07
4.03675e-07
6.21069e-07
5.22333e-07
3.06405e-07
1.19509e-07
8.26733e-08
1.1514e-07
1.42709e-07
1.78502e-07
1.94675e-07
1.82154e-07
2.18067e-07
2.52434e-07
3.59855e-07
2.90443e-07
1.04918e-07
5.99785e-08
1.08742e-07
4.55697e-08
4.40661e-07
6.38466e-07
1.03478e-06
1.3838e-06
9.62372e-07
1.00055e-06
4.58461e-07
4.3967e-07
5.8679e-07
4.25827e-07
3.37619e-07
2.97708e-07
3.7575e-07
3.81071e-07
3.72567e-07
3.69417e-07
3.22544e-07
2.59411e-07
1.78946e-07
8.58248e-08
3.71644e-08
9.67186e-08
1.99012e-07
2.4684e-07
2.14349e-07
1.85575e-07
1.52975e-07
2.45423e-07
4.094e-07
5.39049e-07
5.43614e-07
5.5503e-07
4.24517e-07
3.85861e-07
4.01305e-07
4.12905e-07
4.43605e-07
4.17884e-07
4.76785e-07
5.44749e-07
4.69967e-07
4.49244e-07
4.55336e-07
1.35782e-07
4.46579e-07
6.33244e-07
4.23166e-07
3.20667e-07
1.08048e-07
2.95895e-07
5.08402e-07
8.38965e-07
1.12042e-06
1.34482e-06
1.94317e-06
1.41523e-06
9.86469e-07
8.97788e-07
3.25447e-07
5.47073e-07
5.46905e-07
2.79783e-07
2.16452e-07
1.39643e-07
2.04567e-07
3.84377e-07
4.15604e-07
3.96011e-07
4.19228e-07
3.93308e-07
4.93554e-07
6.52722e-07
7.82553e-07
9.8336e-07
1.1489e-06
1.0095e-06
6.11572e-07
2.4856e-07
2.09278e-07
2.86329e-07
4.28908e-07
6.74263e-07
4.70263e-07
2.69315e-07
1.414e-07
2.03563e-07
2.25607e-07
4.35176e-07
4.46494e-07
3.92458e-07
3.22995e-07
2.60775e-07
2.2335e-07
1.34529e-07
1.24494e-07
7.7038e-08
7.90062e-08
4.63326e-08
1.64581e-07
2.01946e-07
3.06634e-07
6.56148e-07
1.06734e-06
1.09573e-06
6.79594e-07
7.27511e-07
1.3009e-07
1.64145e-07
2.32952e-07
3.66098e-07
3.02198e-07
3.43362e-07
3.90918e-07
4.26524e-07
4.21379e-07
3.88488e-07
3.22334e-07
2.53939e-07
1.70728e-07
9.29644e-08
6.53326e-08
1.24032e-07
2.10383e-07
2.55646e-07
2.3187e-07
2.03784e-07
1.83949e-07
2.53675e-07
3.81587e-07
4.89454e-07
4.43417e-07
4.18058e-07
3.46606e-07
3.42054e-07
3.77379e-07
3.91754e-07
4.42086e-07
4.53264e-07
4.595e-07
5.26911e-07
4.84004e-07
4.75122e-07
5.12049e-07
4.0914e-07
1.8251e-07
4.14375e-07
3.70731e-07
4.05151e-07
3.27344e-07
5.78849e-07
5.57303e-07
6.79388e-07
7.0213e-07
1.31478e-06
1.61293e-06
1.22845e-06
1.02496e-06
6.26145e-07
3.52945e-08
1.73941e-07
1.93937e-07
1.60198e-07
2.16438e-07
2.75575e-07
5.00348e-07
6.13516e-07
5.3369e-07
4.45385e-07
4.40214e-07
4.46589e-07
5.3611e-07
6.48531e-07
7.33054e-07
8.41965e-07
9.31027e-07
8.18462e-07
6.10381e-07
3.72829e-07
3.7028e-07
4.35595e-07
4.68543e-07
4.5047e-07
2.98295e-07
3.64808e-07
4.25256e-07
7.09435e-07
8.55343e-07
8.88863e-07
7.08389e-07
5.63989e-07
4.89894e-07
4.2141e-07
3.81584e-07
2.9971e-07
2.48062e-07
1.29455e-07
1.5021e-07
3.38676e-07
3.88387e-07
2.61264e-07
3.06191e-07
6.96196e-07
6.06615e-07
6.78666e-07
4.80134e-07
5.00652e-07
1.09535e-07
2.89685e-08
6.89979e-08
1.75149e-08
2.20805e-08
1.81384e-08
2.98238e-08
9.62501e-08
1.55514e-07
1.51064e-07
1.45376e-07
1.1274e-07
7.52524e-08
3.60768e-08
2.31601e-08
7.58672e-08
1.37526e-07
1.78276e-07
1.73191e-07
1.61095e-07
1.79593e-07
2.34366e-07
3.35276e-07
4.0309e-07
3.97365e-07
3.77323e-07
3.39606e-07
3.30597e-07
3.71684e-07
3.83831e-07
4.13562e-07
4.14572e-07
4.35709e-07
4.33579e-07
4.3819e-07
4.59785e-07
4.83415e-07
4.34829e-07
4.04916e-07
3.49443e-07
4.07887e-07
6.04883e-07
6.62191e-07
6.91463e-07
6.13507e-07
6.0124e-07
6.41158e-07
1.20706e-06
1.30275e-06
1.08315e-06
9.80735e-07
7.02111e-07
1.00675e-07
3.60293e-08
1.27506e-07
1.92641e-07
6.10851e-07
8.00656e-07
9.84252e-07
8.82664e-07
6.04594e-07
4.58905e-07
4.38591e-07
4.7992e-07
5.07642e-07
5.90148e-07
6.69329e-07
7.44432e-07
7.24009e-07
6.94962e-07
6.35672e-07
4.94105e-07
4.33764e-07
4.0662e-07
3.66887e-07
5.42766e-07
6.49498e-07
1.02713e-06
1.32111e-06
1.50677e-06
1.42934e-06
1.06051e-06
8.17944e-07
7.26112e-07
6.37755e-07
6.01959e-07
5.70049e-07
4.87237e-07
4.00889e-07
4.03883e-07
4.56785e-07
5.37278e-07
5.34623e-07
4.47801e-07
3.41441e-07
2.85307e-07
6.1942e-07
6.73653e-07
2.74004e-07
3.89357e-07
6.77067e-08
3.21002e-08
1.07771e-07
3.75375e-08
3.26273e-08
2.44212e-08
1.58013e-08
2.11317e-08
4.19717e-08
6.13672e-08
5.72621e-08
4.83916e-08
2.66542e-08
9.44559e-09
4.26917e-09
1.28965e-08
2.42693e-08
4.25782e-08
6.66638e-08
9.92438e-08
1.019e-07
2.02372e-07
2.58389e-07
3.13612e-07
3.02479e-07
3.20962e-07
3.22562e-07
3.33533e-07
3.85129e-07
3.89983e-07
3.90788e-07
3.44121e-07
3.48804e-07
3.66882e-07
3.94083e-07
4.67995e-07
5.23321e-07
4.55089e-07
3.26819e-07
4.29278e-07
5.9704e-07
7.83044e-07
9.91244e-07
7.91688e-07
6.47152e-07
5.3093e-07
5.06944e-07
7.49377e-07
8.51945e-07
8.86337e-07
9.5702e-07
6.15074e-07
3.05917e-07
2.59671e-07
2.57305e-07
4.8305e-07
1.33602e-06
1.51886e-06
1.4253e-06
1.04334e-06
6.95436e-07
4.99339e-07
4.89604e-07
4.75183e-07
5.73395e-07
5.58203e-07
6.05812e-07
6.07343e-07
6.07456e-07
5.58033e-07
4.22295e-07
3.0908e-07
2.70509e-07
3.97877e-07
6.63623e-07
1.22092e-06
1.6773e-06
2.09442e-06
2.28271e-06
1.65769e-06
1.15698e-06
8.85717e-07
7.62467e-07
7.3739e-07
7.24333e-07
6.88317e-07
6.37012e-07
5.78102e-07
4.95761e-07
5.06993e-07
5.07413e-07
5.73457e-07
4.76616e-07
4.39581e-07
4.45079e-07
3.01773e-07
4.64264e-07
8.13232e-07
1.30536e-07
4.23959e-07
5.61217e-08
3.75434e-08
9.99169e-08
3.44842e-08
3.76556e-08
9.99939e-09
8.20088e-09
2.06314e-09
8.03302e-10
7.14703e-09
1.89027e-08
2.12512e-08
1.44844e-08
1.74478e-08
2.81093e-09
2.15447e-09
1.05376e-08
3.99406e-08
8.22073e-08
1.24683e-07
1.75077e-07
2.21857e-07
2.5164e-07
2.72908e-07
2.62894e-07
2.8603e-07
3.00383e-07
3.21802e-07
3.74463e-07
4.15899e-07
4.65725e-07
4.68333e-07
5.12215e-07
5.29188e-07
5.45989e-07
6.18923e-07
6.24145e-07
4.82358e-07
2.79442e-07
1.80575e-07
5.76491e-07
8.26158e-07
9.35311e-07
9.32741e-07
7.64667e-07
6.2543e-07
4.36141e-07
5.38878e-07
7.20081e-07
7.31996e-07