/*--------------------------------*- C++ -*----------------------------------*\
| =========                 |                                                 |
| \\      /  F ield         | OpenFOAM: The Open Source CFD Toolbox           |
|  \\    /   O peration     | Version:  2.3.0                                 |
|   \\  /    A nd           | Web:      www.OpenFOAM.org                      |
|    \\/     M anipulation  |                                                 |
\*---------------------------------------------------------------------------*/
FoamFile
{
    version     2.0;
    format      ascii;
    class       volScalarField;
    location    "0.02";
    object      chi;
}
// * * * * * * * * * * * * * * * * * * * * * * * * * * * * * * * * * * * * * //

dimensions      [0 0 -1 0 0 0 0];

internalField   nonuniform List<scalar> 
5000
(
5.28455e-24
1.58099e-22
1.28213e-21
1.08321e-20
4.20254e-20
6.59199e-20
1.32736e-19
3.1186e-19
6.11285e-20
3.04753e-20
4.31312e-20
3.93522e-20
4.87344e-20
1.45159e-19
1.4593e-19
1.44935e-18
3.01319e-18
6.43044e-18
4.10815e-18
4.86003e-18
1.22783e-17
3.79427e-17
9.1673e-17
9.02182e-17
1.81749e-16
3.44291e-16
2.92295e-15
2.81656e-14
8.26047e-14
3.04866e-13
4.18476e-13
1.92464e-13
6.64492e-14
3.02233e-13
1.66239e-12
1.02928e-11
5.58017e-11
2.47628e-10
1.26809e-09
6.83558e-09
5.25386e-09
3.70845e-08
1.29749e-07
5.65356e-07
1.72368e-06
3.56532e-06
8.25532e-06
1.52073e-05
1.40797e-05
2.77589e-05
1.02162e-05
1.04674e-05
1.14422e-05
8.22091e-06
3.45275e-06
2.7707e-06
2.55202e-06
1.20827e-05
6.08828e-05
0.000300984
0.000964494
0.00212216
0.00348361
0.00505064
0.00713727
0.00893661
0.00915997
0.00544009
0.0092991
0.0156995
0.0133319
0.0108243
0.0105929
0.000571361
4.504e-06
5.53659e-06
4.2835e-05
0.000105233
0.000176147
0.000242223
0.000289057
0.000281454
0.000229468
0.000133546
0.000485682
0.000534261
0.000388036
0.000248456
0.0001243
5.09017e-05
6.79086e-06
2.9579e-06
5.13216e-06
1.96612e-05
6.06397e-05
0.000124592
7.24255e-05
2.06351e-05
2.22534e-05
1.11316e-05
4.6635e-22
1.39038e-20
6.94216e-20
3.77252e-19
1.36901e-18
9.81886e-19
5.90663e-18
3.3649e-17
3.32035e-17
3.05324e-17
1.40705e-17
5.92708e-18
4.67341e-18
1.10054e-17
2.48414e-17
9.0863e-17
1.50887e-16
3.08599e-16
1.38385e-16
1.68747e-16
1.49016e-16
5.83281e-16
1.30435e-15
5.16652e-15
1.56002e-14
5.69485e-14
1.61011e-13
8.2491e-13
4.93781e-12
2.11413e-11
2.35146e-11
1.68832e-11
3.92001e-12
5.83716e-12
1.82016e-11
8.66991e-11
3.35355e-10
1.2886e-09
4.9683e-09
2.84675e-08
1.01433e-07
2.39884e-07
3.94884e-07
2.25326e-06
1.18043e-05
5.25211e-05
0.00019852
0.00065248
0.00204024
0.00598154
0.0141233
0.0104513
0.0052477
0.00232435
0.000964731
0.000190683
6.07838e-05
0.000110706
0.000473576
0.00191229
0.00547718
0.0129406
0.0280867
0.057517
0.109823
0.190847
0.301702
0.442579
0.659311
1.01825
1.09364
0.765516
0.116382
0.00553533
0.000702486
0.000717003
0.00122135
0.00273301
0.00566079
0.0098108
0.0146767
0.0200063
0.0263389
0.0355568
0.0501928
0.0628106
0.0610644
0.0239169
0.00736817
0.00193367
0.000247001
9.77886e-05
0.00011184
0.000197186
0.000521515
0.00121504
0.00198723
0.00185521
0.00129075
0.00113604
1.93482e-18
2.47851e-18
4.64767e-18
1.9961e-17
1.14029e-16
4.88997e-16
1.5626e-15
4.22354e-15
3.07005e-15
2.11732e-15
1.88865e-15
1.48144e-16
2.2613e-16
4.44033e-16
1.57467e-15
2.69237e-15
2.01032e-15
7.56337e-15
8.12539e-15
1.09809e-14
2.44964e-14
8.4643e-14
1.61626e-13
3.46181e-13
1.05621e-12
3.15101e-12
1.05289e-11
5.89847e-11
3.17855e-10
1.1835e-09
1.67834e-09
9.70814e-10
1.6363e-10
3.23939e-11
7.05209e-12
7.56848e-11
5.37633e-10
3.59706e-09
1.46812e-08
6.06205e-08
2.40543e-07
6.13114e-07
1.7471e-06
1.06143e-05
6.49022e-05
0.00028886
0.000961885
0.00254294
0.00562077
0.0115648
0.0262864
0.0724833
0.120694
0.0998933
0.0289843
0.000985582
0.00024937
0.000405694
0.00148593
0.00509244
0.0133959
0.0292546
0.0581649
0.10721
0.183023
0.29626
0.472474
0.711772
1.09218
2.0704
2.66768
2.71384
1.49879
0.0989206
0.00590421
0.00192822
0.00215428
0.00354133
0.00655887
0.0107009
0.0151817
0.0195945
0.0237434
0.0285371
0.0405404
0.0679359
0.111857
0.133722
0.101441
0.0208498
0.00164904
0.000461764
0.000430644
0.000621772
0.00121496
0.00253156
0.00464624
0.00516976
0.00452027
0.00321259
1.13785e-17
2.93198e-16
9.79502e-16
2.84102e-15
4.46881e-15
2.07508e-14
5.92275e-14
2.34193e-13
6.94997e-13
5.25091e-13
3.77817e-13
7.46072e-14
3.75624e-14
2.53019e-14
6.59289e-14
1.01204e-13
1.79068e-13
4.1379e-13
9.39456e-13
2.64751e-13
4.78393e-13
2.75824e-12
6.26737e-12
1.13641e-11
1.78181e-11
8.19249e-11
4.27487e-10
2.24099e-09
1.16786e-08
4.39343e-08
6.3432e-08
3.52207e-08
1.34548e-09
6.10783e-10
1.06567e-09
3.31855e-09
4.71524e-09
1.59716e-08
5.49941e-08
2.13739e-07
7.53512e-07
1.3304e-06
6.7996e-06
4.35382e-05
0.000221142
0.000801211
0.00220557
0.0048856
0.00891726
0.0139563
0.0191541
0.036991
0.118669
0.170908
0.112369
0.00739039
0.000837523
0.00091486
0.00240402
0.00711452
0.0171751
0.034554
0.0630764
0.109575
0.196806
0.400095
0.938565
1.96778
3.61564
6.02706
7.23373
7.10627
5.96104
1.83719
0.0387271
0.00383534
0.00236653
0.00213915
0.00312639
0.0051298
0.00788577
0.0112067
0.0151531
0.0194253
0.0237942
0.0357478
0.0787693
0.138038
0.198124
0.159617
0.0299489
0.00278711
0.00130087
0.00142807
0.00225725
0.00411002
0.00748118
0.00909107
0.00865228
0.00607968
5.2593e-15
1.32835e-14
6.02682e-14
1.16341e-13
7.74064e-13
2.82522e-12
1.18862e-11
4.35554e-11
4.37516e-11
4.65506e-11
6.39946e-11
2.26461e-11
1.28085e-11
4.9853e-12
5.12525e-12
5.94531e-12
1.50584e-11
3.35109e-11
6.31528e-12
3.0536e-11
7.40564e-11
2.43846e-10
7.48752e-10
1.85765e-09
3.87298e-09
1.18108e-08
3.79934e-08
1.52627e-07
5.57704e-07
1.82489e-06
2.74463e-06
1.59888e-06
2.11055e-07
1.14873e-07
6.92898e-08
5.50083e-08
6.24019e-08
1.14506e-07
2.56303e-07
7.6421e-07
1.69731e-06
2.61551e-06
2.0647e-05
0.000120114
0.000502685
0.00152222
0.00368867
0.00757932
0.0133381
0.0214821
0.0318618
0.0414016
0.0932945
0.165993
0.197953
0.0369979
0.00225907
0.00137573
0.00267887
0.00709312
0.0162401
0.0314861
0.0582654
0.121578
0.326004
1.04809
3.20472
6.52168
9.23433
10.6193
10.847
11.0977
11.4686
7.78646
0.699609
0.0138418
0.00310196
0.00195778
0.00220031
0.00424884
0.00871666
0.0158636
0.025882
0.0391706
0.0550921
0.0707689
0.102856
0.188728
0.252648
0.348976
0.193363
0.0236246
0.00414192
0.00357172
0.00415736
0.00638683
0.0106319
0.0138042
0.0134407
0.00947649
1.96915e-14
2.08015e-13
1.95268e-12
1.38553e-11
1.01987e-10
2.05813e-11
4.88691e-10
1.68148e-09
4.96062e-09
4.51222e-09
6.10296e-09
2.71843e-09
1.14713e-09
4.46752e-10
4.85784e-10
1.04571e-09
2.19614e-09
2.73838e-09
1.39758e-09
4.65293e-10
2.63796e-09
1.05857e-08
2.0938e-08
1.49595e-08
5.70695e-08
2.30784e-07
7.15734e-07
3.68274e-06
2.29357e-05
0.000114234
0.000291619
0.000187562
3.96283e-05
8.13261e-06
3.07079e-06
2.16659e-06
1.94468e-06
2.39396e-06
2.85009e-06
3.72867e-06
5.20687e-06
7.76234e-06
5.07893e-05
0.00023956
0.000863877
0.0024018
0.00565821
0.011879
0.0223587
0.0398147
0.0694228
0.103067
0.158042
0.263103
0.318002
0.0965982
0.00373468
0.00194751
0.00301389
0.00757355
0.0170871
0.034107
0.0761335
0.231447
0.931178
3.3776
7.75527
10.1154
8.39194
4.24557
2.10646
3.25944
7.08858
11.9551
6.21075
0.12391
0.00990203
0.00428179
0.00388644
0.0077881
0.0187491
0.0390681
0.0692327
0.107211
0.145995
0.173787
0.183078
0.222154
0.266272
0.377771
0.455982
0.125184
0.0139183
0.0079253
0.00769353
0.0102256
0.0153356
0.0193775
0.0188783
0.0136167
1.06219e-11
1.98475e-11
4.65985e-11
2.52208e-10
1.38955e-09
2.04931e-09
6.24185e-09
5.72922e-08
2.2288e-07
5.82348e-07
5.83056e-07
2.25195e-07
1.04548e-07
4.68591e-08
5.52552e-08
1.11439e-08
7.90755e-08
6.23824e-08
7.42434e-08
6.42226e-08
1.01656e-07
2.82277e-07
5.05652e-07
9.95607e-07
1.95597e-06
7.74241e-06
4.02282e-05
0.000252019
0.00153857
0.012939
0.0868264
0.0888883
0.0208725
0.0037719
0.000759223
0.000251503
0.000124968
9.35413e-05
6.20884e-05
2.61827e-05
2.11937e-05
2.11824e-05
9.20524e-05
0.000364669
0.00121223
0.00337911
0.0085619
0.0206813
0.0453793
0.0960801
0.199088
0.308083
0.427994
0.58479
0.648404
0.279486
0.00748566
0.00318435
0.00406609
0.00942776
0.0224073
0.052306
0.153048
0.622832
2.81162
7.26371
8.60048
3.09608
0.163879
0.0371587
0.0185878
0.0106637
0.0941282
2.84181
10.9135
3.03997
0.0298933
0.0114661
0.0104233
0.0181792
0.0425477
0.088428
0.146455
0.191776
0.203455
0.183396
0.146293
0.109889
0.106847
0.137229
0.314613
0.267553
0.0417517
0.0158824
0.0153934
0.0203586
0.0298105
0.0321675
0.0296098
0.0192438
8.27626e-10
5.73029e-09
9.45975e-09
1.059e-08
8.3125e-08
7.76644e-07
4.23652e-06
2.62787e-05
8.94985e-05
0.000210508
0.000283465
8.62475e-05
2.20749e-05
6.30859e-06
2.74296e-06
2.15657e-06
5.62737e-06
1.30496e-05
1.57316e-05
8.98181e-06
8.54747e-06
1.29635e-05
3.30549e-05
9.79388e-05
0.000266453
0.000719329
0.00185894
0.00536563
0.0266259
0.236949
2.60567
9.63252
9.57718
5.44554
0.300451
0.0402056
0.00788316
0.00157424
0.000593809
0.000190462
9.17047e-05
8.21818e-05
0.000176925
0.000577513
0.00187534
0.00554445
0.015806
0.045292
0.120496
0.307009
0.709807
1.01019
1.20228
1.34293
1.41848
0.945001
0.0374243
0.00732596
0.00731528
0.0145772
0.0369061
0.0993118
0.350984
1.65016
6.07543
8.29185
0.437387
0.0171405
1.44891
10.0422
10.9633
9.1347
2.24045
0.146988
2.06955
5.95161
0.142348
0.0284392
0.0256274
0.0410595
0.0872984
0.150687
0.170387
0.136637
0.0891375
0.0494583
0.0221824
0.00316212
0.00114357
0.00710763
0.0495637
0.2006
0.0826114
0.0313938
0.031138
0.0431312
0.0654857
0.0659603
0.0571586
0.0300453
1.16056e-07
9.01242e-07
1.28061e-06
2.01828e-06
1.05591e-05
8.30343e-05
0.000667754
0.00429518
0.0175191
0.0625569
0.20867
0.0976959
0.0203282
0.00404768
0.00101732
0.000471504
0.000895656
0.0031512
0.00499447
0.00327842
0.00209045
0.00156923
0.0018473
0.00315754
0.00803953
0.0220729
0.048652
0.101426
0.261103
1.41523
7.00227
12.1463
12.6163
8.1585
9.6152
3.52378
0.150892
0.0164768
0.00413416
0.00107734
0.000324577
0.000282039
0.000412858
0.00110061
0.0035286
0.011065
0.0349796
0.117986
0.377209
1.03827
2.10469
2.50608
2.51141
2.43475
2.57245
2.58667
0.322129
0.0220397
0.015964
0.0270421
0.0698566
0.202053
0.808453
3.74436
8.28254
0.91429
0.0222855
4.03654
14.2278
11.239
9.94546
9.97619
8.24972
2.00249
0.429377
1.72712
0.27063
0.0507174
0.0482527
0.0831635
0.142294
0.1449
0.0701085
0.0196885
0.00428914
0.00413326
0.0104176
0.0152423
0.0110885
0.00849715
0.00970517
0.0489104
0.0665641
0.0488147
0.0525389
0.0817105
0.134453
0.141197
0.120092
0.0526361
0.000625428
0.00833872
0.0134192
0.00776438
0.00730265
0.0140974
0.0618107
0.383032
2.65667
16.0808
48.4262
47.6724
32.1974
8.09807
0.166139
0.0103999
0.0140535
0.0715358
0.618543
1.0501
0.590435
0.183916
0.0508456
0.0483805
0.0906353
0.24983
0.555273
0.963585
1.92816
5.9877
13.4937
6.30853
2.78641
1.10274
0.912728
2.20477
2.04702
0.408711
0.0398366
0.00607537
0.00103119
0.000790866
0.000982312
0.00227303
0.00712722
0.0234654
0.0840804
0.343367
1.21132
2.60749
2.96549
2.72958
2.49844
2.40822
2.54844
3.69042
1.21557
0.051628
0.0315573
0.0529855
0.142831
0.435969
1.84698
6.62922
5.43571
0.0157099
1.97028
12.4362
8.03474
2.96599
2.7706
3.35272
5.3578
3.67248
1.64328
1.47281
0.14468
0.0577865
0.0761449
0.135946
0.128327
0.0203426
0.00294555
0.00364174
0.0115955
0.0151349
0.0185627
0.023257
0.0253091
0.0237351
0.0216817
0.024487
0.024467
0.0572716
0.0777034
0.140416
0.230761
0.254731
0.22622
0.0946385
185.975
155.125
136.445
83.5584
19.8422
4.87581
4.61535
12.4537
51.2423
99.6799
44.3983
12.2882
17.607
18.3068
3.23635
0.0913123
0.0798041
0.47559
3.6876
9.01696
8.16824
3.89699
0.524412
0.316823
0.56444
1.61164
3.40817
5.25809
8.24095
16.4982
18.0393
6.88394
4.39162
2.7865
1.29531
0.369762
0.77547
1.26939
0.451499
0.0578996
0.004444
0.00198025
0.0023243
0.00492409
0.0158757
0.0584328
0.250385
1.15379
2.86053
2.82514
1.07295
0.580041
0.357553
0.00499246
0.268771
1.15839
1.19332
0.0516306
0.0479381
0.104176
0.308251
0.978297
3.81226
8.39584
1.54733
0.171869
6.93415
6.71315
1.12282
0.361598
0.372448
0.578316
1.62709
2.88734
2.33882
1.85037
0.045094
0.0625647
0.107206
0.126675
0.0126393
0.00346437
0.00768463
0.00920942
0.00781191
0.0072678
0.00820711
0.0116564
0.01937
0.0300671
0.0485885
0.0275448
0.0264526
0.0712845
0.128581
0.193938
0.223562
0.239694
0.231661
0.144711
3.17343
7.34822
20.6568
58.3247
63.9307
37.7047
35.2935
64.923
74.0329
15.6939
5.87311
6.03716
11.9427
11.6224
1.6978
0.256271
0.504897
3.43086
11.1511
9.27253
6.76655
4.64071
1.43537
1.01884
2.59272
6.63343
11.0789
15.6048
21.6377
26.7162
15.0898
10.0395
10.306
9.39823
4.17223
0.732829
0.172731
0.34315
0.864968
0.38562
0.0331274
0.00539276
0.00574286
0.0111857
0.0379398
0.161667
0.837719
3.11884
2.69286
0.0359458
0.200711
0.287852
0.629102
0.0845226
0.0244353
0.446569
0.728336
0.0334847
0.0678609
0.214945
0.709437
2.20966
6.42893
6.68921
0.53899
0.921031
6.47796
0.961383
0.104424
0.0545226
0.0519653
0.0949801
0.382674
1.40088
2.07417
1.3578
0.00523586
0.0640135
0.108758
0.0391988
0.00360406
0.00560369
0.00597993
0.00515432
0.00521662
0.00544083
0.00596912
0.00848177
0.0153545
0.0298405
0.0308326
0.0044307
0.0591848
0.125855
0.188791
0.133948
0.0439233
0.0314724
0.0653554
0.130442
0.0338527
0.310404
1.73181
10.3874
48.5083
76.1205
74.9476
55.0876
8.39736
2.24128
3.4374
12.2653
12.5301
3.50487
0.0636979
1.43828
4.59254
17.1427
16.6345
2.71883
1.52742
1.85233
1.26569
3.0809
9.10305
18.432
24.904
29.203
31.3187
23.0296
10.6328
8.83985
9.54013
7.93635
4.30659
1.8135
0.392086
0.0739578
0.0647314
0.530307
0.17038
0.0186038
0.0151883
0.0263086
0.096159
0.511931
2.81472
3.72034
0.00751281
1.18916
4.98635
5.113
4.4628
2.36539
0.470464
0.563641
0.625558
0.0357761
0.113031
0.470826
1.68106
4.54724
9.08244
3.80189
0.723955
2.20726
3.50289
0.0635663
0.0182525
0.0118447
0.0105361
0.0227822
0.0900051
0.634627
1.23639
0.554094
0.00791416
0.0680757
0.0624027
0.00893798
0.0051878
0.00609157
0.00474261
0.00657926
0.00721155
0.00592962
0.00894141
0.00898467
0.00838562
0.00790519
0.00764127
0.0733424
0.153327
0.19464
0.112145
0.023851
0.00716258
0.00376053
0.00435462
0.0457936
0.000524481
0.00827644
0.0702358
0.38574
1.98959
6.14774
7.33127
2.25595
0.924878
0.779518
2.69104
14.5556
32.3199
16.2687
8.73973
11.0538
25.1035
37.1151
13.3003
5.42535
2.36105
0.333136
4.96754
11.5389
26.7964
34.0113
32.0128
28.1046
21.3424
11.8015
6.56692
5.55464
5.39584
6.86975
5.84291
0.925171
0.0473087
0.0860929
0.0306618
0.0713193
0.273013
0.055789
0.036632
0.0657198
0.300848
1.98069
5.77539
0.390907
1.20052
5.49677
2.77278
2.57769
3.08532
3.50134
1.26423
0.592047
0.459434
0.0704756
0.22636
1.10251
3.77752
8.06109
10.3635
2.13339
0.647309
3.12355
2.08709
0.0157632
0.00452502
0.00417578
0.00828409
0.030715
0.0408037
0.390891
0.653463
0.0194592
0.0292032
0.0747979
0.0338603
0.0119467
0.0107373
0.044536
0.109983
0.136577
0.134237
0.118894
0.0899252
0.0820431
0.0908419
0.115073
0.150042
0.162395
0.139566
0.00854062
0.011457
0.00717584
0.00628011
0.0200476
0.0109657
0.0079734
9.85851e-06
0.000260647
0.00228264
0.011336
0.0438876
0.121532
0.209459
0.213497
0.170168
0.329075
1.25141
7.00647
33.4831
56.728
44.4304
47.5773
55.7269
28.6976
17.3126
17.315
15.472
14.226
19.9795
36.6309
44.414
29.6708
19.222
13.7899
9.726
6.33156
4.55447
3.83495
4.711
9.66546
8.76939
0.97781
0.00883983
0.0138755
0.0249732
0.0120644
0.128433
0.0801156
0.0646938
0.172884
1.10367
5.8695
4.23863
0.0696386
5.65354
1.98386
0.399518
0.356327
0.585698
1.28264
1.23904
1.23804
0.112341
0.0782596
0.542294
2.64246
7.14442
12.3588
8.02362
1.3816
0.869239
3.60731
2.11633
0.0169134
0.00220136
0.00373207
0.0123705
0.0272796
0.0202538
0.293856
0.192251
0.0033685
0.0728696
0.107303
0.0904777
0.125342
0.193969
0.313142
0.448374
0.475488
0.457996
0.393132
0.299178
0.200524
0.131434
0.111181
0.0416014
0.00568396
0.00680686
0.0106192
0.0125648
0.0427006
0.0151812
0.00367899
0.00338767
0.00494493
2.93682e-06
7.2933e-05
0.000542273
0.0023937
0.00814552
0.0206822
0.0379394
0.0514031
0.094699
0.21861
0.601765
2.3997
11.0379
37.2286
56.2398
51.2199
29.2241
13.7793
15.1608
27.0331
39.7988
43.414
50.3668
50.1554
26.0455
12.5486
8.094
6.67617
5.4855
4.03173
3.08841
2.74296
4.37079
11.7491
27.017
15.7276
0.383106
0.00696122
0.0198415
0.0178801
0.0368479
0.0573772
0.102466
0.541484
3.92317
9.32182
1.08619
3.9509
3.04697
0.0795609
0.0397128
0.030599
0.0688399
0.222174
0.637671
0.997189
0.00485752
0.167349
1.41769
5.51018
11.7024
13.2626
3.85432
1.045
1.06292
3.35081
3.24813
0.0791458
0.0026999
0.00297744
0.0172074
0.0575401
0.154009
0.129918
0.00487851
0.0418075
0.225069
0.278787
0.345777
0.450255
0.625586
0.934123
1.31302
1.43239
1.37671
1.13168
0.742751
0.319935
0.0550927
0.00892984
0.00933632
0.00746559
0.00733013
0.190808
2.32179
3.66606
2.01821
0.29946
0.00949832
0.0111466
1.88122e-05
0.000347761
0.00215302
0.00830599
0.0240931
0.05396
0.0886773
0.136386
0.21742
0.36797
0.625893
1.16631
2.96037
7.96194
14.2345
12.9204
7.7985
6.47532
8.51424
16.8386
30.8135
41.3604
36.9791
19.4604
7.82277
5.01406
4.63409
4.2394
3.27723
2.4054
1.85708
2.11669
4.05772
12.126
35.9798
56.6482
18.2297
0.128584
0.00702864
0.0285619
0.0216024
0.0520905
0.270745
2.07907
9.82016
7.34996
0.258785
5.82183
0.0995357
0.00862671
0.00669144
0.0201656
0.102655
0.129235
0.382424
0.471566
0.00641247
0.433957
3.5757
9.77691
15.1082
8.43806
1.54428
0.815434
1.22135
2.84031
3.41108
0.750014
0.00494615
0.0023604
0.00830689
0.0481416
0.0568912
0.0120319
0.0388042
0.274524
0.560398
0.664702
0.803362
1.03486
1.5431
2.71469
4.43463
5.31914
5.3131
4.69085
3.2936
1.49233
0.320572
0.016348
0.00717597
0.0632375
0.731939
4.65974
10.0586
7.51602
2.05375
0.146835
0.00690721
0.0206983
0.00110154
0.0107107
0.0464071
0.13661
0.284048
0.462391
0.582174
0.680723
0.858218
1.14498
1.40342
1.60998
1.93316
2.68299
3.52772
3.63644
3.35071
3.3761
3.99356
6.24322
10.326
12.6954
9.16304
4.57305
3.10627
3.2699
3.17213
2.26497
1.64318
1.25088
1.14983
1.77448
4.01489
9.52855
19.6918
47.3421
64.1243
5.48163
0.0763748
0.0119464
0.00405047
0.163676
1.19415
6.9053
17.544
3.78844
3.17309
3.21666
0.00538445
0.00173977
0.00532068
0.0319266
0.102353
0.0123743
0.36525
0.0189614
0.0935363
1.74897
7.5626
15.3619
12.7577
3.36027
0.959086
0.51916
1.33574
2.40976
2.96074
1.98209
0.120175
0.0150869
0.0069632
0.00522873
0.00890441
0.0560892
0.270906
0.728445
1.03067
1.193
1.53967
2.39881
4.44523
8.44681
13.8603
16.4297
16.5299
14.9909
11.245
6.75481
3.18631
1.438
1.42898
2.22153
6.32351
15.9504
16.0911
8.25264
0.893564
0.130496
0.00670841
0.0365262
0.0593
0.33622
1.02253
2.25036
2.8747
2.59322
2.42606
2.4566
2.72006
2.99214
2.93265
2.77614
2.76739
2.91291
3.02152
2.94064
2.69893
2.31742
2.14775
2.32561
2.72601
2.76322
2.24039
1.95463
2.14946
2.14438
1.40116
0.890047
0.687728
0.617188
0.761368
1.44676
3.39887
5.85107
9.02156
18.3561
57.0983
32.2548
0.769506
0.0903207
0.198753
1.00861
4.94911
17.4919
16.9317
4.09204
5.83677
1.11675
0.00329626
0.00111961
0.0046387
0.0335717
0.106861
0.279317
0.209193
0.00279573
0.451169
5.06961
14.0034
17.0085
6.59615
1.44751
0.885689
0.640282
1.42498
2.0749
2.66067
2.69525
0.96249
0.203302
0.0986312
0.0682186
0.127098
0.346223
0.829746
1.37161
1.67226
2.20917
3.61096
6.67745
12.8154
22.1227
28.3879
28.7719
28.1823
25.8542
22.4292
17.6822
12.4806
8.66005
8.37582
10.1898
18.5903
25.635
17.0096
7.69705
1.07789
0.0523679
0.0251547
0.0786181
3.57609
8.78341
11.0514
8.21022
6.53349
5.49208
5.14082
4.89511
4.61863
3.91084
3.08025
2.68274
2.67067
2.75593
2.66088
2.34775
1.89583
1.46633
1.2141
1.15289
1.17257
1.20117
1.26861
1.35134
1.20332
0.776588
0.387941
0.290606
0.260617
0.321957
0.506181
1.04505
2.26397
2.84504
3.46844
6.09594
23.7203
70.0786
12.0203
2.35155
2.29736
5.35607
15.0524
30.8533
11.2193
5.72157
7.05677
0.71281
0.0463471
0.0328907
0.0221778
0.0124964
0.0720015
0.152202
0.0213412
0.174182
2.70139
11.1012
19.9767
11.6607
2.9117
1.21194
0.895637
0.739064
1.44594
1.83262
2.68864
3.37539
2.19948
0.887595
0.503401
0.474278
0.641671
1.09421
1.71328
2.27547
3.14119
5.18568
9.54987
17.7748
28.6343
34.5946
28.9082
24.684
23.329
22.35
23.8111
26.9885
28.031
23.8142
23.1227
25.5027
31.5278
23.8229
14.6643
8.08038
1.94559
0.0454681
0.054172
0.190262
0.690647
2.97047
3.7145
3.26576
3.12817
3.26117
3.17475
2.84567
2.2323
1.55852
1.17836
1.05817
1.0755
1.1013
1.06577
0.992806
0.866864
0.755094
0.700185
0.704476
0.73887
0.769351
0.751386
0.596449
0.332261
0.155395
0.0896962
0.0821279
0.104169
0.168736
0.305968
0.626751
1.07438
1.08077
1.13951
1.72107
7.05387
52.2121
58.754
15.8873
11.9972
20.2773
36.8591
28.0712
7.55908
5.80498
8.79835
1.28729
0.294304
0.150598
0.113898
0.0570891
0.0139866
0.0199949
0.184159
1.53276
7.99399
20.4159
18.5227
5.91292
1.87858
1.33424
0.812509
0.806337
1.35245
1.88748
3.19636
4.24214
3.89985
2.54451
1.75896
1.65381
1.89033
2.43144
3.0821
4.27318
7.25877
13.385
23.7948
35.5179
37.3175
26.3227
16.5842
14.009
13.1144
14.2088
18.226
25.3994
34.0929
37.3693
37.6393
37.5857
29.7205
14.4906
10.0235
9.09243
4.05081
0.105729
0.142521
0.511163
0.000920991
0.0118885
0.0411828
0.0925118
0.16478
0.253111
0.263363
0.234225
0.202422
0.165807
0.154475
0.165654
0.18797
0.210307
0.231811
0.248359
0.241434
0.24441
0.247902
0.251891
0.256131
0.229479
0.1789
0.108009
0.0482922
0.0242189
0.0193248
0.0242151
0.0455574
0.0822414
0.146086
0.259052
0.325587
0.278192
0.279901
0.384665
1.33237
14.154
75.5008
64.8848
49.0773
55.1191
41.4855
11.5931
4.99793
8.58691
11.9538
3.44677
1.15798
0.712734
0.545766
0.340658
0.217529
0.454767
1.75986
6.40846
18.5285
26.0563
11.3327
3.60663
1.74438
1.23928
0.647643
0.896592
1.26275
2.5305
4.56837
5.98765
5.95761
4.93147
4.0455
3.85986
4.07479
4.62543
5.92301
9.74553
18.5309
31.398
40.5556
35.0341
20.1321
9.45978
6.27112
5.58422
5.79778
7.5074
10.4673
15.1622
21.6353
28.7792
29.6363
25.8497
13.9422
6.93428
5.38191
8.86028
7.36669
0.538006
0.42226
1.42829
2.93345e-06
6.40699e-05
0.000257705
0.000649425
0.00134835
0.00238738
0.00352676
0.00475771
0.00606475
0.00794791
0.0112063
0.0144259
0.01844
0.0235731
0.0290183
0.0290554
0.0161862
0.0063138
0.00698507
0.00978697
0.0104759
0.00355986
0.00426757
0.0103352
0.00534842
0.00372628
0.00401883
0.00761793
0.0184233
0.0291527
0.0447003
0.0610472
0.0587201
0.0421474
0.0428678
0.0603444
0.174495
1.4328
13.7531
53.7058
56.9493
36.5445
13.2623
3.7149
2.98969
8.20276
16.4501
8.16649
4.19129
3.08692
2.5487
1.85585
1.93953
3.45185
7.84834
17.7252
31.3244
19.9664
6.45267
2.7407
1.47981
0.742733
0.576573
0.883353
1.67566
4.23615
7.52364
10.0542
10.2238
8.52116
7.36231
7.25305
7.83101
9.39722
14.1066
25.6408
39.8122
39.5175
23.3893
9.04994
3.46683
1.89046
1.59709
1.62084
2.02328
2.72048
3.48948
4.64272
6.3234
9.01136
8.98272
7.00949
3.64445
2.41062
2.37962
7.09668
11.4605
2.80279
1.44636
3.70259
1.2719e-08
3.28959e-07
1.85396e-06
6.29383e-06
1.80678e-05
4.17226e-05
7.79014e-05
0.000128735
0.000188342
0.000254672
0.000338348
0.000348142
0.000157845
0.000312574
0.000445046
0.000748716
0.00235347
0.00574007
0.00946903
0.00690947
0.00190912
0.000356279
0.00138332
0.00137753
0.000575504
0.000474053
0.000818842
0.00168577
0.00368966
0.00423501
0.00719978
0.00616094
0.00438494
0.00253659
0.00291543
0.00537811
0.0187863
0.103226
0.694561
2.81782
5.61797
4.52578
2.13015
1.36535
1.7346
5.96629
18.1791
16.5925
11.4252
9.40676
8.495
7.52998
8.84939
13.4796
22.8852
34.9314
29.2884
9.48392
3.17173
1.67901
0.81951
0.451895
0.609261
1.00847
3.10737
6.9668
11.7653
16.5518
19.26
17.5933
15.5228
15.9524
18.5526
24.8927
38.3499
44.8619
25.3411
7.75459
1.2559
0.431994
0.299354
0.246048
0.260621
0.349372
0.443694
0.513623
0.55615
0.636134
0.735881
0.903414
0.987516
0.863063
0.678293
0.646622
1.05442
4.63785
14.328
8.0164
4.39618
7.82377
1.15208e-10
2.00812e-09
1.71926e-08
6.60802e-08
2.63604e-07
7.35146e-07
1.43815e-06
2.33408e-06
3.62677e-06
4.78197e-06
1.00764e-05
3.96434e-05
0.000195102
0.00126318
0.00558855
0.0159831
0.0305836
0.0347103
0.02307
0.00698812
0.00120721
0.00219107
0.00128073
0.000303574
0.000333151
0.000530285
0.000739301
0.000790374
0.000952328
0.00166672
0.00275634
0.00382801
0.000433471
0.000426866
0.000611572
0.00230697
0.00292125
0.00912588
0.0382982
0.163174
0.303559
0.301105
0.337408
0.444624
0.804803
2.97082
12.9792
23.2316
22.7699
21.3829
20.3788
20.423
24.8224
32.427
39.945
33.8174
10.9861
2.38052
1.11585
0.721181
0.453436
0.465068
0.728714
2.09475
5.13648
8.73339
12.9029
17.5572
24.6672
31.2745
33.6551
37.1459
43.4266
45.647
30.6541
7.14774
0.502002
0.0891306
0.0358675
0.0177828
0.0122718
0.0132837
0.0218193
0.0372561
0.0417745
0.0389035
0.0349139
0.033127
0.0328394
0.0370661
0.0435716
0.0563583
0.0911916
0.171556
0.457644
2.45835
12.6622
13.8161
9.78939
12.2445
2.47672e-12
2.46429e-11
1.50168e-10
5.75914e-10
3.24243e-09
9.31905e-09
1.73285e-08
2.8478e-08
2.03869e-07
1.16983e-06
1.08508e-05
0.000114772
0.000804504
0.00412432
0.0150427
0.0343465
0.0412716
0.0165333
0.000190443
0.00523673
0.00831947
0.00242021
0.000238134
0.00083081
0.00375581
0.00827983
0.0135094
0.018123
0.02267
0.0377951
0.0541791
0.0600928
0.055214
0.0446806
0.0327658
0.0219705
0.0138283
0.00954189
0.012277
0.015109
0.0202069
0.02444
0.0383564
0.0850687
0.199165
0.828863
5.11758
14.7763
19.6895
21.7349
23.229
27.5986
33.1546
34.9193
24.7473
7.41568
1.16417
0.384648
0.314535
0.326426
0.380974
0.553846
1.22844
3.39335
5.48529
6.23645
6.41769
7.58499
10.9092
17.0272
22.9991
22.3205
14.6123
2.74628
0.228009
0.0168009
0.00119054
0.000916327
0.000768858
0.000700249
0.00073679
0.000790744
0.00121961
0.00201355
0.00172719
0.000974582
0.000700557
0.000855895
0.00172517
0.00113884
0.000805449
0.00247407
0.00849101
0.0375839
0.142079
0.970802
7.58251
17.5868
15.9155
11.7427
1.35394e-13
3.14818e-13
9.76804e-12
2.01835e-11
6.15789e-11
5.76098e-10
2.45196e-09
1.41756e-08
1.45964e-07
1.76844e-06
2.07585e-05
0.000227928
0.001548
0.00710072
0.0200435
0.0266524
0.00031351
0.000342999
0.0139051
0.0195715
0.00418834
0.000187089
0.00285801
0.00634545
0.00971713
0.0164457
0.0303087
0.0538394
0.0897308
0.133477
0.155299
0.149562
0.125535
0.0920198
0.0612002
0.0427627
0.0354753
0.042464
0.0641805
0.072251
0.0595798
0.039199
0.034085
0.0313817
0.034591
0.110236
0.781564
3.31017
5.71155
7.83107
11.7393
17.6004
16.9885
8.55062
1.14131
0.105276
0.0436735
0.0496553
0.0779431
0.169146
0.30978
0.587495
1.72399
2.80929
2.72329
1.75582
0.994469
0.869027
0.988981
0.967749
0.43151
0.113218
0.0131466
0.000671946
0.000470298
0.00167741
0.00398477
0.00576647
0.00752799
0.0096449
0.0119652
0.00716074
0.00279691
0.00285981
0.00792339
0.0124988
0.0315222
0.0595718
0.0905574
0.0703511
0.0312755
0.00564231
0.00237881
0.00311407
0.0117715
0.214883
2.40244
13.2661
16.0911
6.75235
1.03991e-14
2.86121e-14
1.48639e-14
8.95275e-14
3.59259e-12
4.83794e-11
9.02899e-10
8.90658e-09
1.0752e-07
1.56316e-06
1.77663e-05
0.000209168
0.00184053
0.00935844
0.021962
0.010641
0.00029617
0.0139079
0.0301304
0.00841162
0.000264855
0.00348455
0.00561356
0.00435557
0.00557765
0.0120243
0.0246914
0.0471962
0.0798421
0.103362
0.118273
0.116899
0.102474
0.0742434
0.0514191
0.0432699
0.0531276
0.0850035
0.0816843
0.0394521
0.0104483
0.015169
0.0569947
0.121506
0.0969659
0.0499002
0.0621864
0.3606
1.12678
2.95194
4.92151
3.94867
0.948588
0.0442228
0.00175096
0.00129249
0.00159513
0.00279753
0.0142336
0.0630372
0.163851
0.53662
1.04368
0.912397
0.419547
0.161279
0.0419819
0.00997234
0.00313352
0.0002107
4.05325e-05
0.000558731
0.00154592
0.00682323
0.00951286
0.00948281
0.0111769
0.019691
0.0416814
0.0696209
0.118023
0.180559
0.243884
0.311593
0.430136
0.574543
0.711781
0.872162
1.12086
1.21967
1.0853
0.727226
0.371668
0.136855
0.0127849
0.00226694
0.176135
2.61402
6.23262
2.72756
2.14146e-16
3.4578e-16
2.66207e-15
8.92503e-14
2.04808e-12
4.66965e-11
6.01209e-10
1.01456e-08
1.24414e-07
1.68194e-06
2.07926e-05
0.000255832
0.00234803
0.0108075
0.0187471
0.00134332
0.00943007
0.0332894
0.0171919
0.00190197
0.00370187
0.00589522
0.00180108
0.00155669
0.00423146
0.0109304
0.0218807
0.0401924
0.055256
0.0520642
0.0467297
0.0471237
0.0450411
0.0368372
0.0305221
0.0351619
0.0490025
0.0235217
0.00111206
0.00024643
0.0688902
0.115541
0.0997412
0.118331
0.0969398
0.047547
0.00470936
0.267711
1.16984
1.7151
0.773043
0.049764
0.001544
0.000521093
0.00115982
0.00385109
0.00327019
0.000210431
0.000397666
0.0121971
0.0619884
0.231925
0.211275
0.0858809
0.0117804
0.000647794
5.69479e-05
4.4508e-05
0.000297152
0.00142357
0.00507591
0.0126727
0.0124487
0.00136175
0.00215822
0.0088994
0.0357715
0.154624
0.36834
0.48689
0.53684
0.554139
0.568695
0.569874
0.53268
0.514837
0.557234
0.634431
0.805353
1.28014
1.72582
1.92119
1.7365
1.27994
1.06013
0.376763
0.00134633
0.0382286
0.388126
0.828805
1.6896e-17
1.05958e-16
1.26502e-16
2.49977e-14
6.29689e-13
1.23343e-11
4.31788e-10
7.53681e-09
5.28974e-08
9.92161e-07
1.21257e-05
0.000154521
0.00176338
0.00924727
0.0157525
0.00961126
0.0222876
0.0271525
0.00468672
0.00264444
0.00740605
0.00170611
0.000861403
0.00467358
0.00955905
0.0163641
0.0284866
0.0411828
0.0357127
0.0195571
0.0120307
0.0140897
0.018185
0.0179183
0.0183083
0.021642
0.00186642
0.00162536
0.13078
0.175811
0.168115
0.248601
0.270858
0.0525605
0.00171923
0.00248655
0.198198
0.815704
0.84786
0.221732
0.00338153
0.000193359
0.000393422
0.000806869
0.00284855
0.00584519
0.00703772
0.00410334
0.0013443
0.00220558
0.0257573
0.0423697
0.0134208
0.00129311
7.8606e-05
5.10179e-05
0.000921368
0.00644063
0.0125261
0.0164617
0.0144657
0.000528728
0.000377242
0.00056329
0.00183907
0.0659892
0.389751
0.617111
0.505811
0.13902
0.0369128
0.015952
0.0208603
0.0314637
0.0431666
0.0352075
0.0494304
0.0934036
0.193225
0.482185
1.02414
1.42742
2.08602
2.68562
3.29128
2.92125
0.94844
0.00329485
0.0214913
0.202053
9.83552e-19
4.3784e-18
1.61074e-15
4.71988e-14
1.10908e-12
9.44653e-12
3.80576e-10
3.89167e-09
5.00999e-08
5.23058e-07
6.12367e-06
7.7605e-05
0.00103976
0.00631317
0.010086
0.00943696
0.0161132
0.00751418
0.000753863
0.00424404
0.0088207
0.00191167
0.00324549
0.0053529
0.0152017
0.0321456
0.0456757
0.0454199
0.0242185
0.0071212
0.00224753
0.00509952
0.0125987
0.0108806
0.00772654
0.00269827
0.0461946