/*--------------------------------*- C++ -*----------------------------------*\
| =========                 |                                                 |
| \\      /  F ield         | OpenFOAM: The Open Source CFD Toolbox           |
|  \\    /   O peration     | Version:  2.3.0                                 |
|   \\  /    A nd           | Web:      www.OpenFOAM.org                      |
|    \\/     M anipulation  |                                                 |
\*---------------------------------------------------------------------------*/
FoamFile
{
    version     2.0;
    format      ascii;
    class       volScalarField;
    location    "0.02";
    object      p;
}
// * * * * * * * * * * * * * * * * * * * * * * * * * * * * * * * * * * * * * //

dimensions      [1 -1 -2 0 0 0 0];

internalField   nonuniform List<scalar> 
5000
(
99089.3
99892
99865.2
99817.9
99826.6
99926.1
100024
100169
100304
100405
100482
100500
100560
100613
100646
100820
100879
100930
100888
100839
100783
100744
100713
100722
100699
100694
100710
100733
100747
100742
100657
100565
100381
100337
100262
100283
100236
100271
100314
100379
100412
100482
100461
100460
100442
100405
100365
100329
100159
100235
100229
100223
100177
100220
100252
100381
100255
100219
100204
100188
100184
100173
100212
100218
100228
100197
100171
100070
100094
100073
100027
100027
100052
100123
100088
100004
100134
100093
100114
100121
100122
100122
100120
100116
100113
100107
100089
100074
100068
100061
100056
100062
100072
100036
100021
99974.3
99960.9
99938.6
99948.4
99829.1
99568
99999.8
99883.4
99829.5
99840.6
99927.5
100028
100175
100312
100400
100484
100491
100554
100600
100624
100812
100868
100909
100880
100836
100777
100738
100707
100719
100696
100698
100709
100730
100745
100739
100644
100559
100382
100337
100264
100288
100239
100272
100313
100376
100405
100487
100463
100462
100445
100411
100378
100337
100331
100263
100243
100240
100180
100221
100252
100375
100261
100221
100205
100190
100188
100181
100215
100221
100231
100204
100189
100138
100100
100079
100029
100020
100052
100100
100083
100000
100143
100093
100116
100121
100122
100122
100120
100115
100113
100106
100090
100073
100067
100061
100066
100066
100084
100044
100031
99979.3
99963.1
99941.2
99944.1
99827.4
100489
100213
99969.9
99876.4
99863
99931.5
100041
100175
100307
100392
100485
100463
100537
100566
100605
100768
100834
100886
100861
100813
100762
100729
100699
100717
100691
100693
100705
100728
100740
100728
100632
100549
100375
100343
100277
100295
100241
100272
100309
100370
100404
100480
100461
100451
100438
100404
100368
100338
100260
100251
100237
100236
100174
100208
100248
100364
100271
100221
100206
100194
100190
100185
100219
100224
100234
100201
100189
100119
100105
100076
100036
100023
100039
100095
100074
99995.9
100152
100089
100117
100121
100122
100122
100120
100117
100114
100104
100092
100073
100067
100068
100063
100073
100085
100049
100040
99983.2
99966.5
99942.6
99938.8
99833.5
99435.8
100111
99982.3
99886.2
99888.4
99954.5
100058
100195
100318
100396
100477
100434
100511
100520
100585
100696
100801
100849
100834
100783
100736
100706
100679
100705
100680
100688
100700
100722
100732
100714
100608
100535
100373
100350
100299
100315
100248
100274
100305
100361
100403
100471
100454
100443
100436
100403
100371
100336
100301
100259
100242
100225
100199
100210
100236
100358
100285
100225
100215
100200
100200
100195
100225
100229
100236
100203
100191
100126
100105
100074
100040
100024
100028
100041
100063
99994.5
100172
100085
100120
100121
100122
100123
100121
100118
100115
100105
100094
100073
100067
100060
100067
100072
100093
100050
100045
99985.7
99968.4
99947.8
99928.9
99846.5
100638
100340
100067
99935.6
99925
99979.6
100087
100205
100309
100397
100452
100397
100471
100478
100544
100617
100775
100804
100799
100742
100706
100684
100664
100699
100668
100681
100690
100714
100725
100701
100589
100528
100385
100366
100337
100334
100260
100280
100299
100344
100398
100445
100438
100433
100428
100394
100365
100336
100280
100256
100235
100223
100176
100215
100230
100325
100309
100214
100219
100201
100201
100194
100225
100229
100235
100200
100185
100125
100102
100072
100042
100016
100017
100047
100040
100006
100192
100078
100122
100122
100122
100123
100120
100117
100112
100104
100092
100074
100069
100059
100061
100080
100090
100046
100047
99986.1
99969.7
99948.9
99925
99862.5
100221
100344
100137
99993.7
99986
100025
100127
100236
100327
100392
100444
100379
100415
100418
100495
100558
100737
100758
100763
100677
100664
100655
100642
100683
100655
100675
100680
100696
100708
100675
100564
100519
100410
100383
100382
100358
100279
100285
100297
100334
100404
100432
100436
100427
100424
100392
100365
100337
100293
100259
100238
100212
100176
100221
100237
100283
100348
100203
100233
100204
100207
100201
100229
100232
100235
100199
100182
100124
100101
100075
100041
100014
100005
100038
99992.2
100035
100216
100067
100127
100122
100122
100123
100120
100118
100113
100102
100093
100073
100071
100058
100059
100075
100097
100042
100050
99987.8
99969.1
99952.1
99920
99873.1
100374
100413
100177
100010
100014
100032
100156
100248
100322
100383
100405
100352
100359
100350
100453
100484
100697
100697
100704
100639
100634
100628
100625
100669
100648
100665
100675
100686
100698
100666
100564
100524
100450
100415
100454
100386
100304
100296
100290
100319
100395
100412
100425
100415
100416
100386
100362
100336
100286
100256
100232
100201
100175
100209
100238
100263
100378
100175
100242
100202
100208
100201
100230
100235
100233
100199
100175
100126
100099
100074
100034
100031
100001
100009
100051
100010
100243
100050
100133
100122
100122
100123
100119
100117
100111
100102
100092
100070
100072
100055
100060
100063
100111
100028
100054
99988.7
99968.8
99953.3
99918.1
99885.7
100502
100536
100294
100110
100085
100103
100206
100283
100340
100385
100379
100351
100304
100255
100397
100401
100658
100646
100652
100589
100590
100595
100610
100648
100644
100659
100654
100657
100670
100639
100557
100539
100500
100432
100529
100383
100368
100310
100283
100306
100386
100402
100424
100409
100411
100385
100363
100338
100292
100259
100232
100191
100180
100200
100237
100258
100388
100161
100256
100204
100213
100207
100232
100237
100236
100198
100171
100128
100099
100078
100026
100026
100006
100015
100043
100002
100304
100025
100140
100122
100122
100123
100119
100117
100111
100100
100091
100070
100071
100053
100058
100070
100111
100022
100057
99990.5
99968
99955.8
99914
99894.1
100828
100534
100275
100122
100110
100124
100217
100305
100356
100414
100352
100342
100263
100183
100368
100362
100613
100585
100588
100561
100567
100569
100600
100642
100642
100656
100640
100635
100643
100595
100586
100552
100541
100506
100543
100395
100411
100329
100271
100281
100371
100388
100417
100400
100404
100381
100363
100339
100292
100257
100226
100167
100186
100189
100234
100270
100357
100171
100269
100203
100213
100207
100232
100238
100229
100199
100165
100127
100091
100071
100032
100013
100012
100013
100030
100016
100299
100022
100143
100121
100122
100123
100119
100116
100110
100099
100090
100068
100070
100051
100057
100065
100104
100024
100058
99991.3
99966.9
99958.2
99911.6
99903.6
100354
100502
100410
100247
100180
100167
100271
100342
100367
100425
100363
100363
100279
99948.8
100344
100323
100587
100568
100544
100546
100537
100538
100596
100636
100637
100640
100628
100621
100626
100602
100586
100573
100541
100533
100527
100457
100375
100369
100268
100270
100363
100383
100411
100393
100400
100382
100366
100341
100297
100264
100218
100158
100179
100175
100231
100267
100313
100208
100280
100207
100217
100216
100230
100244
100230
100201
100152
100129
100092
100065
100020
100002
100002
100016
100042
100032
100289
100040
100141
100122
100121
100123
100118
100116
100109
100098
100089
100068
100067
100052
100055
100067
100097
100028
100057
99993.9
99966.2
99961.8
99907.2
99910.1
100217
100397
100342
100235
100177
100180
100280
100333
100380
100413
100399
100355
100338
100141
100245
100295
100568
100542
100540
100575
100520
100507
100615
100627
100647
100641
100621
100604
100609
100580
100605
100587
100568
100555
100528
100494
100416
100322
100271
100260
100370
100377
100403
100386
100396
100382
100370
100343
100301
100259
100209
100188
100158
100159
100229
100257
100318
100231
100279
100207
100217
100212
100228
100236
100225
100210
100137
100123
100091
100057
100007
99993.8
99995.2
100015
100040
100030
100283
100064
100138
100123
100122
100123
100118
100115
100108
100097
100088
100067
100063
100055
100054
100065
100092
100031
100054
99995.1
99965.1
99966.2
99902.5
99914.6
100394
100413
100367
100278
100261
100263
100330
100381
100384
100417
100409
100365
100319
100180
100265
100304
100526
100516
100542
100565
100524
100487
100619
100603
100644
100625
100607
100601
100603
100596
100602
100594
100576
100567
100539
100498
100406
100349
100217
100235
100368
100361
100395
100380
100393
100387
100371
100352
100307
100271
100199
100174
100145
100143
100226
100254
100327
100226
100284
100214
100221
100213
100230
100236
100229
100207
100134
100130
100082
100057
99999.3
99985.4
99997
100017
100044
100067
100254
100084
100133
100124
100123
100123
100117
100115
100107
100096
100087
100066
100063
100055
100050
100071
100082
100036
100055
99996.6
99963.4
99969.7
99898.8
99914.6
100371
100396
100362
100311
100297
100274
100327
100371
100380
100410
100410
100378
100315
100224
100276
100352
100486
100523
100562
100562
100546
100483
100569
100604
100642
100620
100609
100601
100598
100601
100599
100592
100584
100578
100536
100496
100382
100342
100223
100218
100353
100347
100389
100372
100392
100388
100383
100350
100311
100258
100197
100153
100147
100119
100219
100238
100338
100218
100281
100218
100221
100213
100225
100233
100226
100207
100119
100141
100080
100052
99995
99980.1
99985.6
100021
100038
100099
100227
100104
100132
100125
100123
100122
100116
100114
100106
100095
100086
100066
100064
100054
100049
100070
100076
100039
100056
99996.8
99962.9
99977.3
99891
99909.8
100406
100394
100373
100340
100335
100343
100371
100388
100408
100416
100424
100390
100350
100225
100308
100380
100494
100541
100556
100563
100530
100487
100558
100589
100625
100612
100598
100598
100598
100599
100605
100592
100585
100590
100536
100475
100397
100287
100283
100196
100305
100348
100380
100364
100394
100390
100382
100372
100310
100255
100199
100147
100126
100101
100207
100210
100349
100213
100277
100226
100225
100214
100223
100229
100222
100206
100129
100145
100081
100049
99994.4
99976.5
99972.7
100029
100043
100120
100200
100112
100135
100124
100123
100121
100116
100113
100105
100094
100085
100066
100064
100054
100051
100067
100072
100043
100054
99997.8
99961.9
99974.5
99888.5
99903.8
100380
100385
100374
100355
100350
100348
100372
100392
100409
100426
100430
100411
100380
100329
100366
100423
100513
100540
100555
100559
100540
100525
100559
100587
100607
100614
100601
100596
100591
100598
100596
100592
100584
100588
100532
100477
100360
100305
100277
100214
100269
100349
100365
100358
100394
100400
100385
100356
100326
100274
100186
100127
100097
100107
100185
100185
100348
100218
100274
100233
100225
100217
100223
100230
100219
100205
100135
100144
100083
100047
99997.1
99971.4
99976.5
100022
100051
100121
100184
100123
100135
100126
100123
100119
100115
100112
100104
100093
100085
100065
100062
100055
100051
100065
100067
100041
100054
99999.2
99960.5
99963.4
99895.5
99900.3
100362
100381
100382
100372
100375
100382
100397
100411
100426
100439
100442
100431
100417
100385
100415
100451
100517
100544
100557
100558
100543
100538
100556
100583
100599
100607
100598
100594
100592
100594
100597
100588
100581
100586
100537
100491
100372
100306
100237
100244
100271
100341
100359
100359
100409
100396
100406
100352
100326
100266
100195
100114
100087
100099
100178
100183
100344
100230
100268
100245
100225
100216
100225
100228
100214
100202
100138
100143
100089
100045
100002
99973.8
99988.3
100027
100047
100134
100167
100130
100133
100126
100123
100119
100115
100112
100103
100093
100085
100065
100063
100054
100052
100062
100065
100041
100056
99998.9
99958.8
99955.3
99902.9
99902.5
100336
100372
100382
100378
100381
100386
100402
100416
100435
100449
100453
100453
100444
100432
100449
100476
100523
100545
100556
100560
100550
100546
100564
100583
100597
100602
100597
100592
100588
100589
100588
100584
100579
100582
100532
100462
100400
100324
100254
100236
100282
100333
100348
100354
100426
100408
100388
100353
100352
100264
100194
100107
100070
100096
100178
100194
100327
100236
100262
100257
100228
100224
100224
100224
100215
100200
100152
100135
100095
100050
100011
99982.2
99992.8
100033
100050
100138
100155
100132
100132
100126
100122
100119
100113
100110
100102
100092
100084
100065
100063
100056
100052
100061
100059
100038
100051
100002
99955.7
99953.3
99908.7
99911.6
100359
100379
100391
100391
100397
100404
100420
100434
100450
100462
100471
100472
100470
100464
100480
100499
100532
100552
100560
100563
100556
100554
100565
100582
100592
100597
100593
100589
100585
100583
100582
100577
100576
100579
100537
100479
100406
100305
100297
100254
100286
100330
100335
100362
100401
100413
100368
100357
100329
100266
100195
100117
100069
100109
100172
100204
100303
100234
100259
100252
100230
100221
100223
100223
100214
100196
100154
100134
100099
100061
100024
99994.7
100003
100037
100054
100136
100146
100134
100130
100125
100122
100118
100112
100110
100101
100091
100084
100065
100063
100058
100055
100060
100058
100037
100051
99997.1
99958.4
99947.4
99915.9
99919.9
100374
100384
100393
100395
100402
100411
100427
100443
100461
100476
100487
100493
100493
100493
100505
100520
100544
100559
100566
100568
100563
100561
100569
100582
100590
100595
100591
100585
100580
100576
100573
100569
100570
100568
100538
100493
100429
100383
100324
100276
100298
100327
100332
100349
100382
100410
100357
100352
100312
100267
100202
100129
100080
100123
100172
100203
100288
100235
100251
100245
100228
100221
100220
100222
100213
100192
100160
100137
100103
100066
100031
100013
100016
100043
100058
100136
100136
100131
100129
100124
100120
100116
100112
100108
100101
100091
100082
100065
100065
100058
100055
100058
100054
100036
100050
99994.5
99960.6
99945
99920.2
99926.7
100384
100393
100401
100405
100413
100423
100440
100457
100476
100492
100505
100514
100517
100519
100529
100541
100558
100570
100574
100575
100571
100568
100573
100582
100588
100591
100587
100581
100574
100569
100565
100561
100564
100561
100541
100500
100452
100379
100345
100297
100308
100324
100333
100361
100378
100401
100354
100353
100297
100268
100212
100147
100090
100137
100174
100209
100275
100228
100251
100241
100228
100222
100217
100217
100211
100189
100163
100136
100110
100074
100042
100025
100024
100047
100062
100128
100133
100131
100126
100123
100121
100116
100112
100107
100101
100091
100083
100066
100065
100062
100057
100057
100054
100036
100048
99991.9
99961.7
99958
99918.8
99934
100398
100400
100403
100408
100418
100431
100450
100470
100491
100511
100527
100538
100543
100546
100554
100562
100574
100583
100585
100584
100579
100576
100578
100584
100587
100588
100583
100577
100569
100561
100555
100549
100551
100553
100539
100511
100458
100392
100353
100319
100320
100331
100347
100370
100375
100394
100356
100350
100294
100269
100217
100171
100126
100145
100186
100211
100269
100236
100252
100235
100226
100220
100217
100213
100207
100187
100166
100139
100114
100079
100053
100037
100035
100053
100067
100127
100125
100127
100121
100123
100119
100115
100110
100106
100100
100090
100083
100067
100067
100062
100057
100054
100053
100035
100046
99990.6
99967.6
99963.4
99923.7
99940.6
100431
100421
100422
100425
100434
100448
100468
100491
100515
100538
100555
100568
100574
100577
100582
100588
100595
100599
100598
100595
100589
100585
100584
100586
100586
100585
100579
100572
100563
100554
100546
100538
100538
100537
100530
100510
100469
100404
100367
100341
100336
100336
100355
100369
100375
100389
100353
100341
100295
100268
100227
100179
100149
100163
100189
100219
100244
100230
100245
100234
100224
100218
100215
100213
100202
100186
100168
100141
100120
100086
100061
100046
100042
100057
100071
100119
100122
100124
100119
100122
100118
100114
100110
100105
100100
100090
100083
100068
100068
100062
100058
100055
100054
100034
100042
99990.7
99970.1
99958.6
99930.9
99945.3
100437
100436
100439
100445
100457
100474
100496
100520
100546
100569
100588
100602
100608
100611
100613
100615
100617
100617
100613
100608
100600
100595
100591
100589
100586
100583
100576
100568
100558
100547
100536
100525
100520
100516
100511
100499
100466
100411
100376
100346
100346
100348
100355
100368
100372
100378
100352
100341
100294
100271
100232
100195
100171
100172
100200
100220
100237
100231
100241
100231
100221
100216
100212
100210
100198
100185
100169
100143
100123
100091
100070
100056
100051
100062
100076
100116
100120
100121
100119
100120
100117
100112
100109
100104
100100
100090
100084
100070
100069
100062
100059
100055
100052
100034
100039
99990.5
99972.1
99960
99938.9
99951
100463
100462
100465
100473
100486
100504
100526
100551
100576
100600
100619
100633
100640
100642
100641
100638
100635
100632
100626
100619
100611
100603
100596
100591
100585
100579
100572
100563
100553
100541
100529
100515
100506
100497
100490
100480
100454
100412
100381
100358
100353
100351
100359
100367
100369
100367
100345
100334
100297
100272
100239
100202
100184
100188
100201
100239
100241
100235
100239
100227
100218
100213
100210
100204
100197
100184
100169
100145
100126
100095
100077
100065
100058
100067
100084
100113
100113
100122
100120
100119
100114
100111
100108
100103
100099
100090
100084
100072
100070
100063
100059
100055
100052
100035
100039
99988.9
99973.7
99963.1
99950.4
99956
100494
100495
100499
100507
100520
100536
100557
100579
100602
100624
100642
100655
100661
100661
100656
100651
100646
100640
100633
100626
100617
100608
100599
100592
100584
100577
100568
100559
100549
100536
100523
100508
100495
100483
100472
100460
100440
100409
100385
100364
100360
100359
100363
100368
100367
100362
100342
100331
100299
100276
100246
100220
100199
100202
100208
100235
100250
100241
100236
100225
100215
100210
100206
100200
100193
100182
100169
100143
100129
100095
100084
100073
100066
100070
100089
100113
100113
100119
100116
100116
100112
100108
100106
100102
100098
100090
100084
100074
100071
100063
100060
100055
100051
100034
100036
99987.4
99975.6
99962
99958.6
99960.7
100536
100537
100541
100549
100560
100574
100590
100608
100626
100644
100658
100669
100672
100670
100664
100657
100651
100645
100638
100630
100621
100611
100601
100591
100582
100573
100564
100555
100545
100533
100520
100506
100491
100477
100463
100449
100430
100406
100387
100372
100368
100366
100369
100369
100366
100359
100340
100329
100301
100278
100252
100223
100207
100208
100212
100236
100249
100239
100230
100220
100211
100206
100204
100195
100190
100179
100168
100146
100131
100104
100089
100078
100069
100075
100093
100105
100107
100115
100114
100113
100110
100107
100104
100101
100097
100090
100084
100074
100071
100063
100060
100055
100051
100034
100034
99990.6
99977.6
99962.8
99965.6
99965.4
100582
100584
100587
100592
100599
100609
100620
100632
100645
100658
100668
100674
100675
100671
100665
100658
100652
100646
100639
100631
100621
100610
100599
100589
100579
100570
100561
100552
100542
100530
100518
100504
100490
100475
100460
100445
100427
100408
100393
100382
100377
100374
100373
100372
100366
100356
100340
100326
100303
100283
100257
100235
100218
100209
100223
100234
100240
100233
100224
100214
100207
100201
100199
100190
100186
100176
100166
100145
100131
100107
100097
100087
100080
100082
100090
100107
100106
100112
100110
100110
100107
100104
100102
100099
100096
100089
100084
100075
100072
100063
100060
100054
100050
100034
100034
99984.4
99979.9
99965.8
99969
99970.5
100631
100632
100633
100635
100638
100643
100648
100654
100661
100667
100672
100674
100673
100668
100661
100655
100649
100643
100637
100628
100618
100607
100596
100587
100576
100567
100558
100549
100540
100529
100518
100505
100492
100477
100462
100446
100430
100414
100400
100390
100385
100381
100379
100375
100368
100357
100341
100328
100305
100285
100263
100241
100223
100223
100217
100232
100231
100225
100216
100209
100202
100198
100193
100187
100182
100171
100160
100145
100133
100117
100105
100096
100089
100092
100097
100104
100105
100110
100108
100107
100105
100103
100101
100097
100095
100088
100084
100075
100072
100063
100059
100053
100049
100033
100031
99989.4
99986.4
99970.9
99972.6
99974.1
100672
100671
100671
100670
100670
100669
100669
100669
100670
100670
100670
100669
100665
100659
100653
100647
100642
100637
100630
100621
100611
100601
100592
100583
100573
100564
100555
100547
100538
100528
100518
100506
100494
100481
100466
100452
100437
100422
100409
100399
100393
100388
100384
100378
100370
100359
100343
100329
100309
100291
100268
100250
100236
100228
100228
100225
100224
100217
100209
100202
100197
100193
100188
100180
100173
100164
100155
100142
100132
100118
100111
100102
100097
100095
100099
100106
100106
100108
100106
100105
100103
100100
100099
100095
100093
100087
100083
100075
100073
100062
100060
100053
100049
100031
100030
99988.6
99986.6
99974
99974.9
99976.9
100698
100697
100695
100693
100689
100685
100681
100677
100672
100668
100664
100659
100654
100648
100642
100637
100632
100627
100620
100612
100603
100595
100587
100578
100570
100561
100553
100545
100537
100529
100519
100509
100498
100486
100473
100460
100445
100432
100419
100409
100401
100395
100390
100383
100373
100362
100346
100331
100312
100293
100275
100256
100242
100233
100227
100222
100216
100210
100202
100197
100191
100187
100181
100173
100168
100160
100153
100143
100136
100125
100117
100109
100103
100103
100103
100106
100105
100107
100105
100104
100102
100100
100098
100095
100093
100087
100083
100075
100073
100062
100059
100051
100047
100030
100030
99983.2
99990.3
99977.4
99977.4
99978
100704
100703
100701
100698
100693
100687
100681
100674
100666
100659
100651
100645
100638
100633
100627
100623
100618
100613
100605
100599
100592
100586
100580
100573
100566
100558
100551
100544
100537
100530
100521
100512
100503
100492
100481
100469
100456
100444
100432
100422
100414
100402
100395
100387
100377
100365
100350
100335
100316
100298
100278
100263
100248
100236
100228
100219
100213
100205
100198
100192
100187
100181
100176
100169
100163
100155
100149
100140
100134
100125
100120
100112
100108
100105
100107
100107
100107
100106
100104
100102
100101
100098
100096
100093
100091
100085
100083
100075
100073
100061
100058
100052
100050
100025
100037
99981.3
99980
99975.2
99985.3
99985.5
100694
100693
100691
100688
100684
100678
100670
100662
100653
100644
100636
100628
100621
100616
100611
100607
100601
100596
100589
100585
100581
100578
100573
100568
100562
100556
100550
100545
100538
100532
100524
100517
100508
100499
100489
100479
100468
100458
100448
100440
100429
100414
100402
100393
100381
100369
100354
100337
100318
100300
100284
100267
100252
100237
100227
100217
100209
100202
100194
100188
100183
100178
100171
100165
100160
100154
100149
100143
100137
100129
100124
100117
100113
100111
100108
100108
100106
100105
100103
100101
100100
100097
100096
100093
100091
100085
100083
100076
100073
100061
100057
100048
100046
100027
100039
99980.5
99988.4
99972.5
99987
99981
100670
100669
100668
100666
100662
100657
100651
100644
100635
100627
100618
100610
100604
100598
100594
100589
100584
100579
100574
100571
100571
100569
100566
100563
100559
100555
100550
100546
100540
100535
100528
100522
100514
100506
100498
100489
100481
100474
100467
100459
100447
100431
100409
100400
100386
100373
100357
100340
100320
100304
100286
100272
100254
100239
100226
100215
100207
100199
100192
100186
100180
100175
100169
100163
100158
100152
100147
100140
100136
100129
100125
100119
100116
100111
100110
100108
100107
100104
100102
100100
100099
100095
100094
100091
100089
100084
100082
100075
100073
100059
100056
100050
100050
100015
100007
99986.3
99989.9
99971.9
99992.2
99985
100640
100640
100640
100639
100637
100634
100630
100625
100618
100611
100604
100597
100591
100586
100581
100577
100572
100568
100564
100563
100563
100564
100563
100561
100558
100556
100552
100549
100544
100539
100533
100528
100521
100514
100507
100500
100494
100489
100481
100474
100462
100447
100427
100404
100392
100376
100359
100342
100322
100305
100288
100273
100257
100238
100225
100213
100206
100198
100191
100184
100180
100174
100167
100162
100156
100151
100146
100141
100136
100131
100126
100121
100117
100114
100111
100109
100106
100103
100101
100098
100098
100095
100094
100090
100089
100084
100082
100075
100073
100058
100057
100043
100043
100030
100038
99979.5
99978.2
99971.6
99986.6
99984.4
100613
100613
100614
100614
100614
100613
100611
100608
100605
100600
100595
100590
100586
100581
100577
100573
100569
100566
100563
100562
100561
100562
100562
100561
100560
100559
100556
100553
100549
100545
100540
100534
100529
100522
100516
100510
100505
100499
100492
100483
100473
100457
100437
100418
100398
100378
100362
100344
100324
100307
100290
100274
100259
100238
100225
100213
100205
100198
100190
100185
100178
100173
100166
100160
100155
100150
100144
100139
100135
100130
100126
100122
100119
100115
100113
100109
100107
100103
100101
100097
100097
100093
100092
100088
100087
100082
100080
100072
100068
100056
100057
100043
100052
100011
100040
99973.8
99986.9
99976.4
99994.1
99991
100598
100599
100600
100601
100601
100602
100602
100601
100600
100598
100595
100592
100590
100587
100584
100581
100578
100575
100573
100571
100570
100569
100568
100568
100567
100566
100562
100560
100556
100552
100547
100542
100536
100531
100525
100519
100512
100505
100497
100488
100477
100463
100443
100423
100405
100384
100361
100344
100324
100308
100290
100275
100258
100238
100224
100213
100204
100197
100191
100185
100180
100171
100165
100159
100154
100149
100143
100139
100135
100131
100127
100123
100120
100116
100113
100109
100106
100101
100099
100096
100096
100092
100092
100089
100088
100083
100081
100074
100070
100057
100057
100039
100040
100011
100043
99970.3
99974.1
99973
99989.8
99987.5
100597
100597
100598
100599
100600
100601
100602
100602
100602
100602
100602
100601
100600
100599
100598
100597
100595
100593
100591
100589
100587
100585
100584
100582
100580
100577
100572
100569
100566
100561
100556
100551
100545
100540
100533
100526
100518
100510
100501
100490
100479
100464
100446
100426
100407
100387
100367
100347
100325
100308
100290
100273
100257
100238
100225
100214
100205
100198
100191
100186
100179
100171
100164
100159
100153
100147
100143
100138
100135
100131
100127
100123
100120
100116
100113
100108
100105
100101
100099
100095
100095
100091
100090
100086
100086
100079
100080
100069
100066
100054
100051
100039
100055
100004
100014
99984.1
99987.6
99983.2
99993.6
99993.2
100610
100610
100610
100611
100611
100612
100613
100613
100614
100615
100616
100617
100618
100618
100618
100618
100618
100617
100615
100613
100610
100607
100604
100601
100597
100593
100587
100580
100575
100571
100566
100560
100554
100548
100541
100533
100524
100514
100504
100493
100480
100465
100447
100428
100408
100389
100369
100350
100329
100311
100292
100275
100258
100241
100227
100216
100206
100200
100192
100188
100178
100171
100164
100158
100152
100147
100142
100138
100135
100131
100128
100123
100120
100115
100112
100106
100104
100099
100098
100094
100094
100090
100090
100086
100086
100078
100080
100074
100071
100059
100057
100040
100056
99999.7
100017
99974.3
99975.9
99977.1
99985.4
99988.4
100632
100632
100632
100631
100631
100632
100632
100632
100633
100634
100636
100637
100639
100640
100641
100642
100642
100642
100640
100638
100635
100632
100627
100623
100617
100612
100605
100598
100590
100581
100575
100569
100563
100555
100547
100538
100529
100518
100507
100495
100482
100466
100449
100431
100413
100394
100374
100354
100334
100315
100296
100278
100262
100245
100232
100219
100209
100202
100194
100188
100178
100170
100163
100158
100152
100147
100142
100138
100135
100130
100127
100123
100119
100114
100110
100106
100104
100100
100098
100094
100093
100088
100087
100083
100082
100077
100077
100066
100067
100050
100048
100034
100034
100013
100007
99995.9
99989.5
99990.8
99991.3
99998.9
100661
100661
100660
100660
100660
100659
100659
100659
100660
100660
100661
100663
100664
100665
100666
100667
100667
100667
100665
100663
100660
100656
100650
100645
100638
100631
100623
100614
100606
100597
100588
100578
100569
100561
100552
100543
100532
100522
100510
100498
100484
100470
100454
100437
100419
100400
100381
100361
100341
100322
100302
100284
100267
100251
100236
100223
100212
100204
100197
100187
100179
100169
100164
100157
100152
100146
100142
100138
100135
100130
100127
100122
100118
100113
100110
100106
100104
100100
100098
100094
100093
100088
100087
100084
100083
100079
100078
100074
100072
100063
100058
100048
100050
99982.9
99993.4
99976.4
99975.6
99991.2
99986.1
99986.6
100689
100689
100689
100689
100688
100688
100688
100688
100688
100688
100689
100689
100690
100690
100691
100691
100690
100689
100688
100685
100681
100677
100671
100664
100657
100649
100640
100631
100621
100612
100602
100592
100582
100572
100562
100551
100541
100529
100517
100504
100491
100476
100461
100444
100426
100408
100388
100368
100348
100328
100309
100291
100273
100256
100241
100226
100216
100205
100199
100187
100179
100169
100163
100157
100151
100146
100142
100138
100135
100129
100126
100121
100118
100112
100110
100106
100105
100100
100099
100093
100092
100086
100085
100079
100080
100071
100073
100063
100062
100049
100046
100030
100023
100010
100008
100004
99997.3
99996.3
99998.6
99990.7
100714
100714
100714
100714
100714
100714
100714
100714
100714
100714
100714
100713
100713
100712
100712
100710
100709
100707
100704
100701
100697
100692
100686
100679
100671
100662
100653
100644
100634
100624
100614
100603
100593
100582