/*--------------------------------*- C++ -*----------------------------------*\
| =========                 |                                                 |
| \\      /  F ield         | OpenFOAM: The Open Source CFD Toolbox           |
|  \\    /   O peration     | Version:  2.3.0                                 |
|   \\  /    A nd           | Web:      www.OpenFOAM.org                      |
|    \\/     M anipulation  |                                                 |
\*---------------------------------------------------------------------------*/
FoamFile
{
    version     2.0;
    format      ascii;
    class       surfaceScalarField;
    location    "0.02";
    object      phi;
}
// * * * * * * * * * * * * * * * * * * * * * * * * * * * * * * * * * * * * * //

dimensions      [1 0 -1 0 0 0 0];

internalField   nonuniform List<scalar> 
9850
(
1.29459e-06
8.4572e-08
1.25957e-06
1.04258e-08
1.25663e-06
-1.42786e-08
1.25939e-06
-1.28208e-08
1.26566e-06
-1.17857e-08
1.28624e-06
-2.35024e-08
1.31041e-06
-2.68735e-08
1.34219e-06
-3.63276e-08
1.36443e-06
-2.91172e-08
1.36768e-06
-1.07008e-08
1.35751e-06
3.53906e-09
1.32379e-06
2.98387e-08
1.27938e-06
4.4064e-08
1.23016e-06
5.37454e-08
1.19914e-06
3.80006e-08
1.21427e-06
-6.58885e-09
1.2373e-06
-1.54303e-08
1.2828e-06
-3.92353e-08
1.31055e-06
-2.33456e-08
1.31256e-06
1.54149e-09
1.29535e-06
1.91081e-08
1.25535e-06
4.06257e-08
1.21289e-06
4.2027e-08
1.1949e-06
1.62123e-08
1.18837e-06
4.52158e-09
1.18512e-06
5.27709e-10
1.18679e-06
-4.79111e-09
1.19714e-06
-1.41955e-08
1.22699e-06
-3.29615e-08
1.2913e-06
-6.53796e-08
1.37531e-06
-8.10879e-08
1.43304e-06
-5.33412e-08
1.43707e-06
2.35531e-09
1.43148e-06
1.0925e-08
1.41619e-06
1.84313e-08
1.40571e-06
1.38469e-08
1.3792e-06
3.01684e-08
1.32392e-06
5.86309e-08
1.20365e-06
1.2395e-07
1.06111e-06
1.46655e-07
9.96226e-07
6.89337e-08
1.00843e-06
-8.1277e-09
1.03207e-06
-2.12679e-08
1.07199e-06
-3.78078e-08
1.12654e-06
-5.28652e-08
1.19061e-06
-6.2847e-08
1.27043e-06
-7.91445e-08
1.35145e-06
-8.12864e-08
1.40552e-06
-5.45785e-08
1.47781e-06
-7.39126e-08
1.53722e-06
-6.06822e-08
1.55089e-06
-1.58926e-08
1.51374e-06
3.72925e-08
1.41117e-06
1.02694e-07
1.29046e-06
1.22199e-07
1.21845e-06
7.56204e-08
1.13308e-06
8.35358e-08
1.0686e-06
6.20469e-08
1.04359e-06
2.13161e-08
1.03754e-06
9.42575e-10
1.03801e-06
-8.28014e-09
1.04313e-06
-1.44925e-08
1.06189e-06
-2.7994e-08
1.09704e-06
-4.3262e-08
1.15212e-06
-6.13487e-08
1.21899e-06
-7.17883e-08
1.28514e-06
-6.9864e-08
1.3485e-06
-6.17926e-08
1.42094e-06
-5.49666e-08
1.47353e-06
-2.38588e-08
1.46375e-06
3.94904e-08
1.31901e-06
1.74727e-07
1.12014e-06
2.28726e-07
1.03693e-06
1.02858e-07
1.03061e-06
1.08508e-08
1.03792e-06
-1.30052e-09
1.07003e-06
-3.10979e-08
1.10563e-06
-3.28293e-08
1.14058e-06
-3.54079e-08
1.17367e-06
-3.43013e-08
1.2103e-06
-3.79062e-08
1.25078e-06
-4.13383e-08
1.29664e-06
-4.52908e-08
1.35292e-06
-5.2239e-08
1.40867e-06
-4.79098e-08
1.44041e-06
-2.27562e-08
1.44246e-06
5.93658e-09
1.40764e-06
4.14691e-08
1.33847e-06
7.4676e-08
1.27575e-06
6.61438e-08
1.24875e-06
2.90706e-08
1.24499e-06
4.94273e-09
1.24854e-06
-4.65391e-09
1.26505e-06
-1.67372e-08
1.3041e-06
-4.05449e-08
1.33931e-06
-3.68244e-08
1.34363e-06
-5.00343e-09
1.31364e-06
2.98397e-08
1.24641e-06
6.76782e-08
5.13276e-08
4.04308e-06
-2.53587e-07
4.05485e-06
-7.04086e-08
3.94316e-06
4.93949e-08
3.77071e-06
1.29733e-07
3.62904e-06
1.13607e-07
3.60376e-06
-6.44095e-09
3.64142e-06
-7.19671e-08
3.74284e-06
-1.50484e-07
3.87618e-06
-1.81287e-07
3.96839e-06
-1.2371e-07
4.00923e-06
-5.56181e-08
3.98289e-06
4.53797e-08
3.94685e-06
7.97073e-08
3.863e-06
1.51856e-07
3.77333e-06
1.49038e-07
3.80983e-06
-1.60893e-08
3.86903e-06
-5.15822e-08
3.98568e-06
-1.36225e-07
4.0626e-06
-8.62925e-08
4.07596e-06
-8.78666e-10
4.05731e-06
4.38873e-08
4.01048e-06
8.96743e-08
3.9429e-06
1.08705e-07
3.88681e-06
6.71402e-08
3.82231e-06
6.32505e-08
3.76403e-06
5.08761e-08
3.73688e-06
1.31467e-08
3.75044e-06
-3.86023e-08
3.82057e-06
-1.11622e-07
3.99856e-06
-2.45698e-07
4.25132e-06
-3.25356e-07
4.43679e-06
-2.25973e-07
4.4527e-06
4.02506e-09
4.43041e-06
4.69516e-08
4.37226e-06
8.37461e-08
4.33595e-06
5.88622e-08
4.2636e-06
1.12273e-07
4.14391e-06
1.87741e-07
3.93871e-06
3.39842e-07
3.6388e-06
4.58794e-07
3.30747e-06
4.12329e-07
3.1496e-06
1.61967e-07
3.11534e-06
1.92164e-08
3.1325e-06
-5.05955e-08
3.19624e-06
-1.1645e-07
3.30666e-06
-1.79313e-07
3.44587e-06
-2.33385e-07
3.58346e-06
-2.47457e-07
3.69488e-06
-2.16373e-07
3.79434e-06
-2.53704e-07
4.01101e-06
-2.74695e-07
4.23144e-06
-1.81481e-07
4.2827e-06
5.12464e-08
4.11708e-06
3.25633e-07
3.78364e-06
5.06047e-07
3.49396e-06
4.18532e-07
3.19529e-06
3.79703e-07
3.00827e-06
2.29932e-07
2.90952e-06
7.68016e-08
2.82175e-06
2.56305e-08
2.7363e-06
1.3407e-09
2.63987e-06
-5.20814e-09
2.55173e-06
-3.65917e-08
2.47878e-06
-7.11241e-08
2.44055e-06
-1.19222e-07
2.43293e-06
-1.4765e-07
2.4543e-06
-1.63121e-07
2.46769e-06
-1.51256e-07
2.52777e-06
-1.72475e-07
2.62343e-06
-1.06681e-07
2.75966e-06
-3.04474e-08
2.91897e-06
2.80575e-07
2.9424e-06
6.43938e-07
2.94629e-06
3.35765e-07
2.97367e-06
1.77418e-08
2.96447e-06
2.14578e-08
2.9845e-06
-7.71456e-08
2.97464e-06
-6.27826e-08
2.96885e-06
-8.00715e-08
2.97e-06
-8.46534e-08
2.98712e-06
-9.8238e-08
3.00755e-06
-1.03139e-07
3.01976e-06
-1.05227e-07
3.0745e-06
-1.38201e-07
3.20373e-06
-1.59152e-07
3.37836e-06
-1.42439e-07
3.61518e-06
-8.31347e-08
3.79004e-06
2.83644e-08
3.75465e-06
2.15905e-07
3.67105e-06
2.42458e-07
3.67853e-06
6.93216e-08
3.71821e-06
-2.95413e-08
3.76047e-06
-5.01675e-08
3.80363e-06
-7.38452e-08
3.86712e-06
-1.38556e-07
3.91357e-06
-1.18783e-07
3.9136e-06
-8.53099e-09
3.85763e-06
8.99514e-08
3.6601e-06
2.77125e-07
2.25835e-07
6.51923e-06
7.77762e-07
6.23296e-06
1.02856e-07
6.23195e-06
-3.15214e-08
6.30359e-06
7.32104e-09
6.37256e-06
1.85054e-08
6.43155e-06
-7.74497e-08
6.49902e-06
-1.50281e-07
6.61346e-06
-2.83278e-07
6.77622e-06
-3.71047e-07
6.9349e-06
-3.11576e-07
7.0445e-06
-1.91463e-07
6.99292e-06
8.29476e-08
6.92086e-06
1.53653e-07
6.73252e-06
3.65264e-07
6.47551e-06
4.4349e-07
6.42549e-06
8.26883e-08
6.46474e-06
-5.17455e-08
6.55667e-06
-1.9477e-07
6.59352e-06
-9.89225e-08
6.55829e-06
5.39761e-08
6.44357e-06
1.70427e-07
6.26104e-06
2.76834e-07
6.11944e-06
2.49228e-07
6.09863e-06
8.02962e-08
6.09525e-06
5.76188e-08
6.10502e-06
2.83452e-08
6.13858e-06
-3.47151e-08
6.22407e-06
-1.40475e-07
6.39701e-06
-2.96191e-07
6.7083e-06
-5.57799e-07
7.11329e-06
-7.15055e-07
7.46454e-06
-5.58434e-07
7.55474e-06
-6.33291e-08
7.57207e-06
4.43634e-08
7.53572e-06
1.24755e-07
7.49379e-06
1.10673e-07
7.33866e-06
2.79954e-07
7.07906e-06
4.60779e-07
6.67801e-06
7.57579e-07
6.12334e-06
1.03346e-06
5.52281e-06
1.03192e-06
5.20418e-06
5.01796e-07
5.10544e-06
1.24883e-07
5.10165e-06
-4.85966e-08
5.16091e-06
-1.97104e-07
5.25674e-06
-3.26425e-07
5.36401e-06
-4.29495e-07
5.42897e-06
-4.43631e-07
5.31264e-06
-2.92855e-07
5.05023e-06
-2.65197e-07
4.85872e-06
-3.90603e-07
4.89422e-06
-2.83008e-07
5.09254e-06
-9.01723e-08
5.44052e-06
2.98995e-07
5.6499e-06
8.23681e-07
5.49341e-06
8.15483e-07
5.03277e-06
8.34375e-07
4.67485e-06
5.09015e-07
4.37239e-06
2.12279e-07
4.06138e-06
1.345e-07
3.76737e-06
8.71645e-08
3.48016e-06
8.14826e-08
3.24736e-06
4.21718e-09
3.0859e-06
-8.4852e-08
3.00917e-06
-1.8999e-07
2.99233e-06
-2.50794e-07
3.04955e-06
-3.1025e-07
3.10378e-06
-2.83102e-07
3.17441e-06
-3.26382e-07
3.25911e-06
-2.46171e-07
3.34679e-06
-1.07939e-07
3.53796e-06
2.2582e-07
3.93256e-06
8.46474e-07
4.38765e-06
8.77018e-07
4.56795e-06
5.94779e-09
4.50184e-06
1.04703e-07
4.42896e-06
-1.0221e-07
4.28637e-06
-5.81846e-08
4.18236e-06
-1.17764e-07
4.12808e-06
-1.45177e-07
4.12858e-06
-1.88196e-07
4.15699e-06
-2.06097e-07
4.17741e-06
-2.00673e-07
4.16739e-06
-2.17054e-07
4.18006e-06
-2.6757e-07
4.27142e-06
-2.50223e-07
4.41022e-06
-1.95433e-07
4.7084e-06
-9.99009e-08
5.21878e-06
1.85569e-07
5.60668e-06
4.15204e-07
5.75619e-06
1.22754e-07
5.80742e-06
-6.26971e-08
5.80103e-06
-6.00484e-08
5.79346e-06
-1.30483e-07
5.83847e-06
-2.95312e-07
5.88329e-06
-2.94394e-07
5.88358e-06
-4.6011e-08
5.85196e-06
1.17677e-07
5.64334e-06
5.44072e-07
4.5414e-07
8.10084e-06
-5.59243e-07
8.48748e-06
-4.10681e-07
8.85914e-06
-5.10283e-07
9.25204e-06
-4.54204e-07
9.47506e-06
-2.39379e-07
9.52337e-06
-1.40026e-07
9.47631e-06
-1.15061e-07
9.4084e-06
-2.34738e-07
9.35766e-06
-3.49686e-07
9.3555e-06
-3.40625e-07
9.43861e-06
-3.00632e-07
9.36609e-06
1.42204e-07
9.30056e-06
2.27158e-07
9.11114e-06
5.93437e-07
8.88415e-06
7.24983e-07
8.84803e-06
1.86721e-07
8.96516e-06
-1.14691e-07
9.15831e-06
-3.39622e-07
9.29329e-06
-1.97257e-07
9.29867e-06
7.94193e-08
9.22662e-06
2.6069e-07
9.07461e-06
4.36341e-07
8.91259e-06
4.09669e-07
8.88203e-06
1.01525e-07
8.85693e-06
7.06492e-08
8.83048e-06
3.72983e-08
8.81253e-06
-3.59259e-08
8.84836e-06
-1.94805e-07
9.01139e-06
-4.70992e-07
9.41528e-06
-9.58075e-07
9.9614e-06
-1.2397e-06
1.0379e-05
-9.5573e-07
1.04278e-05
-9.16712e-08
1.04007e-05
7.85917e-08
1.02771e-05
2.4109e-07
1.01505e-05
2.42847e-07
9.90095e-06
5.39265e-07
9.55191e-06
8.23737e-07
9.00847e-06
1.32181e-06
8.18199e-06
1.88672e-06
7.37323e-06
1.86551e-06
7.07379e-06
8.27329e-07
7.0062e-06
1.88267e-07
6.96357e-06
-4.22613e-08
6.9496e-06
-2.7862e-07
6.93069e-06
-4.67553e-07
6.88407e-06
-5.93853e-07
6.81525e-06
-6.24902e-07
6.68576e-06
-4.48062e-07
6.45139e-06
-3.55585e-07
6.13436e-06
-4.54617e-07
5.78438e-06
-3.23721e-07
5.61334e-06
-7.85772e-10
5.79476e-06
2.52658e-07
6.39991e-06
1.06315e-06
6.84944e-06
1.26436e-06
6.51312e-06
1.19994e-06
5.97667e-06
8.9428e-07
5.40766e-06
4.5498e-07
4.84007e-06
3.47835e-07
4.37305e-06
2.4685e-07
3.97695e-06
2.09106e-07
3.68979e-06
5.49201e-08
3.51126e-06
-1.13418e-07
3.44948e-06
-2.96752e-07
3.44156e-06
-3.85762e-07
3.51813e-06
-4.976e-07
3.59671e-06
-4.47056e-07
3.68451e-06
-4.88581e-07
3.83583e-06
-4.5254e-07
3.96761e-06
-2.32241e-07
4.11167e-06
1.51279e-07
4.37402e-06
8.70688e-07
5.05586e-06
1.3222e-06
5.76202e-06
2.92719e-07
5.86519e-06
4.61963e-08
5.79102e-06
-1.14846e-07
5.55311e-06
-1.56826e-08
5.37277e-06
-1.5135e-07
5.27937e-06
-2.20074e-07
5.2627e-06
-2.99075e-07
5.2852e-06
-3.32612e-07
5.31221e-06
-3.2398e-07
5.31983e-06
-3.26872e-07
5.28917e-06
-3.58444e-07
5.26063e-06
-3.68235e-07
5.3008e-06
-2.79877e-07
5.43506e-06
-2.11553e-07
5.85276e-06
2.86546e-08
6.66077e-06
4.33229e-07
7.38195e-06
3.31505e-07
7.61609e-06
-1.69042e-07
7.58531e-06
-2.81723e-08
7.47438e-06
-1.3556e-07
7.40932e-06
-4.3699e-07
7.38599e-06
-5.08688e-07
7.35101e-06
-1.34286e-07
7.32035e-06
1.37699e-07
7.15072e-06
7.83624e-07
6.92649e-07
1.21777e-05
-4.08301e-08
1.19391e-05
-3.39205e-07
1.17768e-05
-4.99587e-07
1.16519e-05
-4.21664e-07
1.15256e-05
-1.58603e-07
1.14014e-05
-3.02042e-08
1.13458e-05
-6.96856e-08
1.1357e-05
-2.62208e-07
1.14307e-05
-4.47206e-07
1.16781e-05
-6.12325e-07
1.21112e-05
-7.50503e-07
1.22401e-05
8.93066e-09
1.22471e-05
2.40647e-07
1.21363e-05
7.58372e-07
1.18927e-05
1.04187e-06
1.17138e-05
4.5935e-07
1.17906e-05
-1.23527e-07
1.18649e-05
-3.49191e-07
1.18951e-05
-1.77442e-07
1.18063e-05
2.12959e-07
1.16203e-05
4.71354e-07
1.13478e-05
7.18686e-07
1.10863e-05
6.68553e-07
1.10312e-05
1.44772e-07
1.10053e-05
8.1095e-08
1.09788e-05
4.16429e-08
1.09609e-05
-4.2125e-08
1.1052e-05
-3.02531e-07
1.13578e-05
-7.85362e-07
1.19846e-05
-1.57369e-06
1.28027e-05
-2.03206e-06
1.34377e-05
-1.57144e-06
1.35222e-05
-1.67185e-07
1.34698e-05
1.23307e-07
1.33027e-05
3.79912e-07
1.31046e-05
4.36835e-07
1.2746e-05
8.97084e-07
1.22692e-05
1.30906e-06
1.15028e-05
2.10945e-06
1.03275e-05
3.09325e-06
9.28926e-06
2.93111e-06
8.93785e-06
1.19712e-06
8.82596e-06
2.64549e-07
8.6878e-06
-1.64234e-08
8.53752e-06
-3.40198e-07
8.32549e-06
-5.44089e-07
8.09835e-06
-7.07384e-07
7.92911e-06
-8.09073e-07
7.72246e-06
-5.89198e-07
7.48017e-06
-4.71423e-07
7.21493e-06
-5.64496e-07
6.75124e-06
-2.98903e-07
6.28219e-06
1.94277e-07
6.20114e-06
3.11408e-07
6.78789e-06
1.14269e-06
7.75553e-06
1.89741e-06
7.78219e-06
1.34206e-06
7.07483e-06
1.43744e-06
6.30904e-06
7.65763e-07
5.55389e-06
6.3008e-07
4.96179e-06
4.47103e-07
4.47202e-06
3.78119e-07
4.12741e-06
1.20808e-07
3.91823e-06
-1.424e-07
3.81728e-06
-4.11454e-07
3.76013e-06
-5.17773e-07
3.85697e-06
-7.17962e-07
3.9925e-06
-6.48639e-07
4.02266e-06
-6.04429e-07
4.07077e-06
-6.03756e-07
4.18859e-06
-3.29189e-07
4.36579e-06
4.42903e-08
4.6535e-06
8.26744e-07
5.09041e-06
1.45675e-06
6.19907e-06
1.14268e-06
7.03161e-06
-3.69873e-07
7.07099e-06
-1.56121e-07
6.79987e-06
7.11254e-08
6.54674e-06
-1.78658e-07
6.39404e-06
-3.06891e-07
6.33777e-06
-4.26055e-07
6.32686e-06
-4.68551e-07
6.31972e-06
-4.47835e-07
6.29247e-06
-4.29914e-07
6.22686e-06
-4.33554e-07
6.11819e-06
-4.28628e-07
6.03612e-06
-3.82292e-07
6.04732e-06
-2.45777e-07
6.24953e-06
-9.23941e-08
6.86143e-06
3.10318e-07
7.98432e-06
5.58896e-07
8.827e-06
-1.79038e-07
8.94424e-06
-1.17308e-07
8.78173e-06
-8.63766e-08
8.62021e-06
-5.55312e-07
8.52063e-06
-7.41132e-07
8.44022e-06
-2.61569e-07
8.37872e-06
1.74552e-07
8.21081e-06
1.01741e-06
9.71644e-07
1.51412e-05
-4.33749e-07
1.50629e-05
-4.11006e-07
1.46516e-05
-2.5934e-07
1.40492e-05
7.3653e-08
1.34814e-05
3.5598e-07
1.32129e-05
2.1877e-07
1.33166e-05
-1.7867e-07
1.36367e-05
-5.89991e-07
1.41609e-05
-9.83658e-07
1.48595e-05
-1.32034e-06
1.55055e-05
-1.3958e-06
1.55813e-05
-5.12345e-08
1.54658e-05
3.96423e-07
1.50578e-05
1.2384e-06
1.43799e-05
1.81261e-06
1.38813e-05
1.07398e-06
1.39699e-05
-1.29292e-07
1.41885e-05
-4.83707e-07
1.43925e-05
-3.14311e-07
1.42595e-05
3.98168e-07
1.39501e-05
8.08621e-07
1.34336e-05
1.24509e-06
1.29708e-05
1.12545e-06
1.28998e-05
2.01648e-07
1.2913e-05
4.85187e-08
1.29906e-05
-6.22326e-08
1.30841e-05
-1.62304e-07
1.32522e-05
-4.90858e-07
1.36268e-05
-1.17427e-06
1.43132e-05
-2.24541e-06
1.52644e-05
-2.90047e-06
1.62096e-05
-2.39407e-06
1.65257e-05
-4.31008e-07
1.64903e-05
1.56757e-07
1.63175e-05
5.08792e-07
1.60985e-05
6.43329e-07
1.56658e-05
1.30747e-06
1.50088e-05
1.96144e-06
1.39805e-05
3.15449e-06
1.25456e-05
4.55968e-06
1.12945e-05
4.2049e-06
1.07525e-05
1.73259e-06
1.05044e-05
4.18269e-07
1.0141e-05
1.19179e-07
9.75132e-06
-3.00341e-07
9.33812e-06
-5.64038e-07
8.9735e-06
-8.03325e-07
8.74072e-06
-1.01011e-06
8.53201e-06
-7.90405e-07
8.28651e-06
-6.29088e-07
8.05601e-06
-7.2898e-07
7.56831e-06
-2.52487e-07
6.9244e-06
4.33164e-07
6.60817e-06
5.6926e-07
6.99116e-06
1.21292e-06
8.31714e-06
2.46138e-06
8.91285e-06
1.237e-06
8.0954e-06
2.16908e-06
7.16456e-06
1.14213e-06
6.22625e-06
9.83612e-07
5.50899e-06
6.96981e-07
4.94331e-06
5.72155e-07
4.53331e-06
2.03938e-07
4.22228e-06
-1.41241e-07
4.02648e-06
-4.97614e-07
3.95517e-06
-6.542e-07
4.01043e-06
-9.09206e-07
4.01753e-06
-8.0214e-07
4.05271e-06
-7.33512e-07
4.23579e-06
-8.39135e-07
4.40653e-06
-4.97491e-07
4.48834e-06
-1.6671e-08
4.76114e-06
6.71541e-07
5.11773e-06
1.62124e-06
6.15456e-06
1.355e-06
7.64536e-06
-1.39156e-07
8.25307e-06
-6.37491e-07
7.96856e-06
2.6117e-07
7.62542e-06
-1.6266e-07
7.32763e-06
-3.54388e-07
7.14444e-06
-5.178e-07
7.03505e-06
-5.74095e-07
6.94763e-06
-5.44806e-07
6.86056e-06
-5.12684e-07
6.76797e-06
-5.0075e-07
6.66248e-06
-4.81159e-07
6.54568e-06
-4.4921e-07
6.46907e-06
-2.64778e-07
6.5189e-06
-1.31713e-07
6.86159e-06
1.80252e-07
7.84638e-06
5.05598e-07
9.16865e-06
1.9948e-07
9.81235e-06
-4.69792e-07
9.72085e-06
-6.56296e-10
9.58948e-06
-7.04294e-07
9.47696e-06
-1.00732e-06
9.3508e-06
-4.20937e-07
9.25182e-06
2.26895e-07
9.07852e-06
1.2446e-06
1.28487e-06
1.56502e-05
2.01344e-07
1.57686e-05
-7.28541e-07
1.61556e-05
-8.50659e-07
1.64903e-05
-3.94601e-07
1.67152e-05
6.78474e-08
1.67046e-05
2.09037e-07
1.68062e-05
-2.80332e-07
1.69909e-05
-7.72816e-07
1.73214e-05
-1.31064e-06
1.791e-05
-1.89872e-06
1.85562e-05
-2.01331e-06
1.86667e-05
-1.29408e-07
1.84191e-05
7.09328e-07
1.77305e-05
2.0213e-06
1.67641e-05
2.88647e-06
1.60326e-05
1.92555e-06
1.62474e-05
-2.43431e-07
1.66039e-05
-7.39787e-07
1.69578e-05
-5.82437e-07
1.68826e-05
5.26965e-07
1.65883e-05
1.12563e-06
1.60635e-05
1.77451e-06
1.55371e-05
1.63742e-06
1.54132e-05
3.05123e-07
1.54065e-05
2.32713e-08
1.53842e-05
-8.25582e-08
1.52671e-05
-1.02925e-07
1.50656e-05
-3.85954e-07
1.46844e-05
-1.01401e-06
1.39598e-05
-1.88227e-06
1.39499e-05
-2.7091e-06
1.56503e-05
-2.67427e-06
1.74619e-05
-9.51131e-07
1.84021e-05
-1.27515e-07
1.87559e-05
4.09322e-07
1.87076e-05
7.9635e-07
1.83051e-05
1.69727e-06
1.7598e-05
2.65477e-06
1.64163e-05
4.34643e-06
1.48043e-05
6.20214e-06
1.33218e-05
5.70395e-06
1.24806e-05
2.53148e-06
1.20238e-05
6.89946e-07
1.14294e-05
3.45884e-07
1.08046e-05
-1.84515e-07
1.01819e-05
-5.22696e-07
9.6692e-06
-8.68606e-07
9.34712e-06
-1.22112e-06
9.07147e-06
-9.93408e-07
8.77671e-06
-8.00778e-07
8.55608e-06
-9.36321e-07
8.08866e-06
-2.09499e-07
7.36137e-06
7.00997e-07
6.88934e-06
9.29576e-07
6.98741e-06
1.4203e-06
8.49484e-06
2.79006e-06
9.72487e-06
1.11999e-06
8.91509e-06
2.89191e-06
7.89017e-06
1.59208e-06
6.81538e-06
1.3702e-06
5.99775e-06
9.69866e-07
5.3227e-06
8.05573e-07
4.75742e-06
3.69733e-07
4.30722e-06
-8.23082e-08
4.09346e-06
-5.80307e-07
3.96913e-06
-7.44587e-07
3.97156e-06
-1.09456e-06
4.18719e-06
-1.10898e-06
4.49563e-06
-1.05624e-06
4.81114e-06
-1.16687e-06
5.03139e-06
-7.3127e-07
5.10848e-06
-9.81065e-08
5.04784e-06
7.46341e-07
5.20593e-06
1.62225e-06
5.66484e-06
1.83305e-06
7.15549e-06
5.10311e-07
8.83084e-06
-1.35579e-06
8.76813e-06
3.49973e-07
8.42864e-06
-1.42511e-07
7.98042e-06
-3.64968e-07
7.62356e-06
-5.50981e-07
7.37142e-06
-6.25079e-07
7.19538e-06
-6.00933e-07
7.07749e-06
-5.82741e-07
6.99933e-06
-5.75614e-07
6.95951e-06
-5.73361e-07
6.95068e-06
-5.76267e-07
6.92433e-06
-3.34251e-07
6.9238e-06
-1.36725e-07
7.09569e-06
9.27433e-08
7.72444e-06
4.06972e-07
9.0505e-06
5.22796e-07
1.01608e-05
-5.62097e-07
1.03022e-05
-1.06895e-07
1.0266e-05
-8.68063e-07
1.01864e-05
-1.31874e-06
1.00566e-05
-6.07237e-07
9.94085e-06
2.85451e-07
9.75532e-06
1.47883e-06
1.63064e-06
1.92632e-05
-1.53919e-06
1.94659e-05
-1.22414e-06
1.94925e-05
-1.08736e-06
1.93237e-05
-3.73956e-07
1.90519e-05
2.67229e-07
1.86277e-05
6.06638e-07
1.85241e-05
-1.83992e-07
1.87737e-05
-1.02906e-06
1.93298e-05
-1.85601e-06
2.02696e-05
-2.77388e-06
2.14621e-05
-3.00227e-06
2.21344e-05
-6.5056e-07
2.20182e-05
9.73915e-07
2.12269e-05
2.95534e-06
2.00998e-05
4.14122e-06
1.8954e-05
3.18745e-06
1.90326e-05
-2.14549e-07
1.92531e-05
-8.57006e-07
1.95407e-05
-7.69115e-07
1.94055e-05
7.11028e-07
1.90383e-05
1.50181e-06
1.84237e-05
2.37439e-06
1.77185e-05
2.28986e-06
1.73539e-05
5.99194e-07
1.71615e-05
1.03255e-07
1.69371e-05
-1.22386e-08
1.64288e-05
1.85907e-07
1.5424e-05
2.41907e-07
1.32414e-05
2.59221e-07
9.85846e-06
-2.61739e-07
7.60664e-06
-1.62264e-06
7.83049e-06
-2.39303e-06
9.47516e-06
-1.73122e-06
1.28217e-05
-1.24915e-06
1.6775e-05
-5.46011e-07
1.89569e-05
-1.5419e-07
1.99947e-05
1.43643e-06
1.98581e-05
2.97326e-06
1.87275e-05
5.50184e-06
1.70877e-05
7.88449e-06
1.54466e-05
7.33291e-06
1.42638e-05
3.62725e-06
1.35188e-05
1.16701e-06
1.26424e-05
7.27636e-07
1.17192e-05
5.91563e-08
1.08508e-05
-3.87852e-07
1.01296e-05
-8.68023e-07
9.63633e-06
-1.37835e-06
9.22778e-06
-1.16286e-06
8.84564e-06
-9.47503e-07
8.61707e-06
-1.13925e-06
8.17969e-06
-1.45973e-07
7.5109e-06
9.48291e-07
7.0234e-06
1.27467e-06
6.81672e-06
1.79763e-06
8.10954e-06
2.9138e-06
9.92073e-06
1.16133e-06
9.50796e-06
3.24923e-06
8.49459e-06
2.06467e-06
7.30093e-06
1.79197e-06
6.32064e-06
1.30005e-06
5.48422e-06
1.12478e-06
4.77309e-06
5.85596e-07
4.26793e-06
-1.402e-08
4.04533e-06
-6.04644e-07
3.97009e-06
-9.29655e-07
4.22648e-06
-1.40257e-06
4.66704e-06
-1.55618e-06
5.2026e-06
-1.57193e-06
5.70577e-06
-1.61787e-06
5.90682e-06
-1.02512e-06
5.90064e-06
-2.3114e-07
5.71207e-06
8.8186e-07
5.53461e-06
1.81965e-06
5.54875e-06
2.07701e-06
6.57335e-06
9.15928e-07
8.59359e-06
-7.7935e-07
9.06803e-06
3.71878e-08
8.8357e-06
-1.57172e-07
8.32929e-06
-3.77745e-07
7.83042e-06
-5.44528e-07
7.48949e-06
-6.36068e-07
7.31456e-06
-6.69873e-07
7.28927e-06
-7.13564e-07
7.36086e-06
-7.44331e-07
7.45538e-06
-7.42863e-07
7.55144e-06
-7.65096e-07
7.62827e-06
-4.72536e-07
7.68697e-06
-2.01065e-07
7.75256e-06
7.60245e-08
8.04368e-06
3.66194e-07
9.03055e-06
7.4633e-07
1.02344e-05
-2.99884e-07
1.06022e-05
-3.46925e-07
1.05991e-05
-1.00026e-06
1.0495e-05
-1.60467e-06
1.03824e-05
-7.96247e-07
1.03257e-05
2.9627e-07
1.0198e-05
1.67486e-06
1.97907e-06
2.13686e-05
-1.22484e-06
2.15075e-05
-1.60655e-06
2.17286e-05
-1.47922e-06
2.14398e-05
-2.19716e-07
2.09655e-05
6.51911e-07
2.04077e-05
1.06127e-06
1.99052e-05
1.24445e-07
1.9411e-05
-8.59446e-07
1.8777e-05
-1.51301e-06
1.78311e-05
-1.96581e-06
1.82425e-05
-2.49372e-06
2.07067e-05
-1.18869e-06
2.25362e-05
4.95323e-07
2.27383e-05
3.61991e-06
2.19529e-05
5.41337e-06
2.03125e-05
4.98467e-06
1.97315e-05
3.58248e-07
1.9677e-05
-9.71601e-07
2.02648e-05
-1.18413e-06
2.06059e-05
5.22997e-07
2.04236e-05
1.76718e-06
1.97645e-05
3.02696e-06
1.8795e-05
3.11692e-06
1.7953e-05
1.16355e-06
1.70754e-05
4.86383e-07
1.61656e-05
3.04748e-07
1.50287e-05
7.07341e-07
1.32664e-05
1.17529e-06
1.06144e-05
1.5112e-06
7.75084e-06
8.92409e-07
5.91006e-06
-6.41141e-07
5.37559e-06
-2.10695e-06
5.7657e-06
-1.95757e-06
6.57717e-06
-1.79739e-06
8.63106e-06
-1.86625e-06
1.36696e-05
-1.39234e-06
1.89018e-05
-1.0312e-07
2.04769e-05
2.12291e-06
2.01884e-05
5.90122e-06
1.9025e-05
9.14787e-06
1.73351e-05
8.98875e-06
1.57728e-05
5.0621e-06
1.47467e-05
1.83858e-06
1.35765e-05
1.24869e-06
1.2342e-05
4.22197e-07
1.12025e-05
-1.52679e-07
1.02465e-05
-7.8814e-07
9.54996e-06
-1.47385e-06
8.99055e-06
-1.26422e-06
8.58443e-06
-1.12336e-06
8.41853e-06
-1.35214e-06
8.01352e-06
-2.69903e-08
7.48139e-06
1.1494e-06
7.05752e-06
1.57558e-06
6.69397e-06
2.23644e-06
7.37065e-06
3.07089e-06
9.30635e-06
1.52562e-06
9.60251e-06
3.06863e-06
8.74894e-06
2.47216e-06
7.53927e-06
2.18718e-06
6.48257e-06
1.61148e-06
5.51467e-06
1.48217e-06
4.69193e-06
8.53167e-07
4.17275e-06
1.5115e-07
3.98058e-06
-7.80934e-07
4.11992e-06
-1.15251e-06
4.58268e-06
-1.86295e-06
5.39879e-06
-2.28843e-06
6.71749e-06
-2.60305e-06
7.68796e-06
-2.55238e-06
7.82445e-06
-1.26992e-06
7.413e-06
-1.46261e-07
6.66301e-06
1.1471e-06
6.19158e-06
2.24265e-06
5.92254e-06
2.40844e-06
6.41817e-06
1.23992e-06
8.38669e-06
1.1473e-07
9.11386e-06
-2.93934e-07
8.94684e-06
-1.56719e-07
8.40053e-06
-3.91009e-07
7.87564e-06
-5.37927e-07
7.62111e-06
-6.98212e-07
7.62072e-06
-8.19548e-07
7.75172e-06
-9.1924e-07
7.91995e-06
-9.57588e-07
8.08222e-06
-9.43042e-07
8.226e-06
-9.60165e-07
8.36403e-06
-6.69178e-07
8.49387e-06
-3.42778e-07
8.54625e-06
5.14067e-08
8.67707e-06
3.98257e-07
9.32377e-06
9.34184e-07
1.03299e-05
5.88665e-08
1.07107e-05
-5.22338e-07
1.06748e-05
-1.05678e-06
1.04651e-05
-1.79998e-06
1.03188e-05
-9.3603e-07
1.03234e-05
2.56575e-07
1.03162e-05
1.7849e-06
2.30953e-06
2.35443e-05
-3.26362e-07
2.27357e-05
-2.50401e-07
2.29197e-05
-4.36841e-07
2.30591e-05
-5.18889e-08
2.24279e-05
1.25003e-06
2.05573e-05
2.50939e-06
1.77025e-05
2.00924e-06
1.42606e-05
1.08988e-06
1.13898e-05
2.139e-07
8.88853e-06
-3.71432e-07
7.16153e-06
-1.16668e-06
8.06654e-06
-1.51914e-06
1.10264e-05
-8.4888e-07
1.53261e-05
7.35027e-07
1.96017e-05
4.48665e-06
1.95144e-05
5.30425e-06
1.77315e-05
1.64556e-06
1.49496e-05
7.86295e-08
1.38882e-05
-7.51863e-07
1.48371e-05
-3.68305e-07
1.61113e-05
1.08971e-06
1.72756e-05
2.80385e-06
1.70324e-05
3.31413e-06
1.56495e-05
1.99895e-06
1.38809e-05
1.15358e-06
1.21497e-05
9.2512e-07
1.07974e-05
1.21171e-06
9.51301e-06
1.63914e-06
8.03726e-06
1.95036e-06
6.51548e-06
1.49305e-06
5.22333e-06
-2.86186e-07
4.60669e-06
-1.65561e-06
4.69427e-06
-2.03907e-06
5.28217e-06
-2.24934e-06
6.57422e-06
-2.80766e-06
8.98617e-06
-2.70863e-06
1.34736e-05
-1.9235e-06
1.83328e-05
6.97225e-07
2.02556e-05
4.94009e-06
1.9954e-05
9.70158e-06
1.85143e-05
1.03799e-05
1.68036e-05
6.60294e-06
1.55454e-05
2.67e-06
1.40719e-05
1.91762e-06
1.25312e-05
9.13154e-07
1.11715e-05
1.30058e-07
1.00001e-05
-6.32032e-07
9.11307e-06
-1.47781e-06
8.51705e-06
-1.36108e-06
8.17461e-06
-1.32236e-06
8.08988e-06
-1.57259e-06
7.8874e-06
-1.04839e-08
7.53353e-06
1.30074e-06
7.09985e-06
1.89588e-06
6.72595e-06
2.59577e-06
6.94035e-06
3.31525e-06
8.53602e-06
2.07171e-06
9.23342e-06
2.90841e-06
8.62011e-06
2.81931e-06
7.50816e-06
2.46356e-06
6.42218e-06
1.90326e-06
5.39436e-06
1.84202e-06
4.57496e-06
1.1004e-06
4.04566e-06
3.32298e-07
4.02921e-06
-9.71449e-07
4.40435e-06
-1.53109e-06
5.18669e-06
-2.54194e-06
6.90667e-06
-3.50099e-06
8.4987e-06
-3.86339e-06
9.21605e-06
-3.44498e-06
9.30415e-06
-1.63766e-06
8.7856e-06
-8.84663e-08
7.74129e-06
1.62673e-06
6.95954e-06
2.75788e-06
6.57832e-06
2.85028e-06
6.93861e-06
1.75137e-06
8.66833e-06
9.71937e-07
9.17335e-06
-4.68182e-07
8.88423e-06
-8.34578e-08
8.31348e-06
-3.80946e-07
7.92196e-06
-5.87704e-07
7.90101e-06
-8.44996e-07
8.09172e-06
-1.03166e-06
8.31859e-06
-1.15105e-06
8.54318e-06
-1.17743e-06
8.75296e-06
-1.15978e-06
8.93754e-06
-1.16805e-06
9.07632e-06
-8.63307e-07
9.18425e-06
-4.78898e-07
9.23025e-06
1.79542e-08
9.33673e-06
4.40665e-07
9.82528e-06
1.16348e-06
1.05221e-05
3.01685e-07
1.07003e-05
-5.69003e-07
1.05474e-05
-1.04706e-06
1.02086e-05
-1.89964e-06
1.00316e-05
-1.04337e-06
1.00804e-05
1.76944e-07
1.01873e-05
1.80791e-06
2.62644e-06
2.14576e-06
-9.04915e-07
2.63475e-06
-6.64701e-07
3.69404e-06
-1.23183e-06
5.92732e-06
-1.40362e-06
8.91522e-06
-2.50292e-07
1.00099e-05
1.38662e-06
8.85556e-06
2.55624e-06
6.55439e-06
1.79008e-06
4.43801e-06
1.08777e-06
3.61076e-06
-5.99262e-09
3.72658e-06
-1.28281e-06
4.53603e-06
-2.28281e-06
5.96091e-06
-2.05173e-06
8.36901e-06
-3.96115e-07
1.38812e-05
2.77171e-06
1.62271e-05
4.07528e-06
1.42583e-05
3.08335e-06
1.08787e-05
1.36621e-06
8.90307e-06
-1.88061e-07
9.12759e-06
-6.35245e-07
1.00344e-05
3.68576e-07
1.19832e-05
1.95778e-06
1.29055e-05
2.93268e-06
1.17214e-05
2.76372e-06
1.00813e-05
1.64573e-06
8.58965e-06
1.3816e-06
7.63898e-06
1.50552e-06
6.98117e-06
1.82018e-06
6.18135e-06
2.3304e-06
4.96282e-06
1.76043e-06
4.28396e-06
-6.66977e-08
4.21531e-06
-1.57565e-06
4.48475e-06
-2.17235e-06
5.14541e-06
-2.63298e-06
6.15547e-06
-3.30112e-06
7.9546e-06
-3.82172e-06
1.04538e-05
-3.39581e-06
1.40107e-05
-8.97104e-07
1.79056e-05
3.28971e-06
1.98537e-05
8.94797e-06
1.91794e-05
1.10957e-05
1.72938e-05
8.26574e-06
1.58454e-05
3.59456e-06
1.41615e-05
2.644e-06
1.23949e-05
1.46586e-06
1.08127e-05
4.92554e-07
9.462e-06
-4.33167e-07
8.51788e-06
-1.46867e-06
8.01383e-06
-1.52786e-06
7.84847e-06
-1.58354e-06
7.97871e-06
-1.88286e-06
8.05334e-06
-1.70189e-07
7.73967e-06
1.518e-06
7.24333e-06
2.35601e-06
6.67993e-06
3.17781e-06
6.40678e-06
3.80763e-06
7.76797e-06
2.83932e-06
8.67658e-06
3.02558e-06
8.26285e-06
3.07123e-06
7.24792e-06
2.61798e-06
6.21054e-06
2.09766e-06
5.21615e-06
2.14036e-06
4.4098e-06
1.44529e-06
3.96606e-06
3.21396e-07
4.05738e-06
-1.12183e-06
4.56711e-06
-2.00617e-06
5.98298e-06
-3.42078e-06
8.31557e-06
-5.0416e-06
9.96653e-06
-5.18719e-06
1.07555e-05
-4.45647e-06
1.08911e-05
-2.1529e-06
1.01075e-05
3.76771e-08
8.69016e-06
2.18355e-06
7.72679e-06
3.26342e-06
7.33872e-06
3.36891e-06
7.71405e-06
2.36429e-06
9.05432e-06
1.67626e-06
9.11721e-06
-3.46946e-07
8.71354e-06
-6.69493e-09
8.26011e-06
-4.32326e-07
8.18015e-06
-6.93871e-07
8.33888e-06
-1.01983e-06
8.51493e-06
-1.19418e-06
8.70742e-06
-1.31489e-06
8.9049e-06
-1.37033e-06
9.10972e-06
-1.36806e-06
9.30423e-06
-1.38451e-06
9.45805e-06
-1.05891e-06
9.57912e-06
-6.11016e-07
9.66145e-06
-2.84515e-08
9.87296e-06
4.67411e-07
1.03086e-05
1.41878e-06
1.06359e-05
3.41156e-07
1.05295e-05
-4.25814e-07
1.02684e-05
-1.04276e-06
9.85692e-06
-1.96261e-06
9.68031e-06
-1.14654e-06
9.75596e-06
6.79248e-08
9.94674e-06
1.75116e-06
2.92109e-06
1.06162e-06
-6.44323e-07
1.23806e-06
-8.32423e-07
1.34784e-06
-1.31468e-06
1.71653e-06
-1.69584e-06
2.89153e-06
-8.366e-07
3.90764e-06
2.80157e-07
3.86847e-06
2.01492e-06
3.17037e-06
1.57703e-06
2.82487e-06
1.0408e-06
2.89263e-06
-1.24818e-07
3.09567e-06
-1.48042e-06
3.65138e-06
-2.72332e-06
5.07956e-06
-3.13901e-06
7.20532e-06
-1.76852e-06
1.07906e-05
2.22175e-06
1.19611e-05
3.29621e-06
1.03155e-05
3.80337e-06
8.08838e-06
2.0385e-06
6.6853e-06
-1.34007e-07
6.39797e-06
-6.19652e-07
6.61964e-06
-2.5591e-07
7.7061e-06
1.30468e-06
8.84535e-06
3.02862e-06
8.18259e-06
3.05519e-06
7.12625e-06
1.94302e-06
6.20511e-06
1.73881e-06
5.5049e-06
1.58256e-06
4.94106e-06
1.89225e-06
4.45826e-06
2.23101e-06
3.97328e-06
1.66442e-06
3.79359e-06
-9.27403e-09
3.8377e-06
-1.57228e-06
4.13468e-06
-2.22028e-06
4.80542e-06
-2.84709e-06
5.78973e-06
-3.89018e-06
7.24504e-06
-4.61699e-06
8.93206e-06
-4.77859e-06
1.09774e-05
-2.38418e-06
1.37694e-05
1.77822e-06
1.75182e-05
7.19412e-06
1.88279e-05
1.07244e-05
1.71114e-05
9.62659e-06
1.55216e-05
4.58921e-06
1.36496e-05
3.43396e-06
1.16493e-05
2.07152e-06
9.93179e-06
8.46571e-07
8.57627e-06
-2.51107e-07
7.76644e-06
-1.47043e-06
7.62189e-06
-1.93084e-06
7.97167e-06
-2.0424e-06
8.29264e-06
-2.25731e-06
8.53028e-06
-4.4632e-07
8.35108e-06
1.62684e-06
7.81445e-06
2.86367e-06
7.19893e-06
3.81469e-06
6.67017e-06
4.53453e-06
7.72087e-06
4.08532e-06
8.39404e-06
3.24605e-06
7.90828e-06
3.37318e-06
6.88745e-06
2.75493e-06
5.89806e-06
2.2535e-06
5.02052e-06
2.37901e-06
4.27574e-06
1.76425e-06
3.90572e-06
3.93716e-07
4.04306e-06
-1.25941e-06
4.69505e-06
-2.56449e-06
6.60571e-06
-4.31411e-06
9.2501e-06
-6.49475e-06
1.087e-05
-6.74317e-06
1.16732e-05
-5.41537e-06
1.18662e-05
-2.7722e-06
1.11632e-05
1.28723e-08
9.6787e-06
2.64094e-06
8.59484e-06
3.93701e-06
8.20887e-06
3.98169e-06
8.47357e-06
3.52744e-06
9.27937e-06
1.98089e-06
8.96811e-06
2.28905e-08
8.57846e-06
-2.80271e-08
8.38625e-06
-5.11937e-07
8.43978e-06
-7.65268e-07
8.54339e-06
-1.10276e-06
8.66484e-06
-1.27416e-06
8.81218e-06
-1.4501e-06
8.98977e-06
-1.54199e-06
9.1797e-06
-1.56191e-06
9.37051e-06
-1.57486e-06
9.53644e-06
-1.21735e-06
9.71622e-06
-7.54355e-07
9.93801e-06
-1.18249e-07
1.02843e-05
4.65303e-07
1.05503e-05
1.45694e-06
1.05214e-05
3.87496e-07
1.02151e-05
-2.50741e-07
9.91725e-06
-1.09967e-06
9.66954e-06
-2.07348e-06
9.63143e-06
-1.37221e-06
9.75325e-06
-8.59559e-08
9.81321e-06
1.78539e-06
3.29408e-06
9.75019e-07
-5.11049e-07
9.33327e-07
-7.98362e-07
7.89153e-07
-1.17595e-06