/*--------------------------------*- C++ -*----------------------------------*\
| =========                 |                                                 |
| \\      /  F ield         | OpenFOAM: The Open Source CFD Toolbox           |
|  \\    /   O peration     | Version:  2.3.0                                 |
|   \\  /    A nd           | Web:      www.OpenFOAM.org                      |
|    \\/     M anipulation  |                                                 |
\*---------------------------------------------------------------------------*/
FoamFile
{
    version     2.0;
    format      ascii;
    class       volScalarField;
    location    "0.02";
    object      T;
}
// * * * * * * * * * * * * * * * * * * * * * * * * * * * * * * * * * * * * * //

dimensions      [0 0 0 1 0 0 0];

internalField   nonuniform List<scalar> 
5000
(
294
294
294
294
294
294
294
294
294
294
294
294
294
294
294
294
294
294
294
294
294
294
294
294
294
294
294
294
294
294
294
294
294
294
294
294
294
294
294
294.001
294.002
294.008
294.025
294.073
294.171
294.319
294.552
294.877
295.248
295.654
295.712
295.43
295.095
294.782
294.541
294.435
294.534
294.89
295.779
297.777
301.367
306.53
313.099
320.871
329.644
339.054
348.283
355.25
355.608
346.488
334.299
322.671
311.471
300.098
297.014
297.134
297.829
298.981
300.462
302.205
304.096
305.966
307.588
308.244
307.022
304.589
302.03
299.827
298.051
296.803
296.016
295.737
295.882
296.309
297.126
298.346
299.251
299.614
299.843
300.222
294
294
294
294
294
294
294
294
294
294
294
294
294
294
294
294
294
294
294
294
294
294
294
294
294
294
294
294
294
294
294
294
294
294
294
294
294
294
294.001
294.003
294.012
294.046
294.163
294.502
295.272
296.817
299.6
304.154
311.417
325.624
336.413
330.936
321.085
312.21
305.87
299.791
297.314
298.667
303.826
314.211
329.847
350.174
376.628
410.244
450.608
494.438
537.872
582.554
632.536
647.494
628.98
543.403
406.512
325.903
306.864
307.143
311.254
320.501
332.733
346.089
359.277
372.09
386.559
402.41
407.771
403.414
383.379
350.487
328.112
312.809
301.702
299.269
299.643
301.368
305.64
312.576
315.794
315.304
312.834
312.71
294
294
294
294
294
294
294
294
294
294
294
294
294
294
294
294
294
294
294
294
294
294
294
294
294
294
294
294
294
294
294
294
294
294
294
294
294
294.001
294.004
294.011
294.039
294.143
294.489
295.557
298.065
303.299
312.798
327.854
349.858
384.567
438.507
479.454
473.718
431.783
357.253
310.092
303.14
307.444
322.936
349.664
385.518
428.533
479.661
539.084
604.096
669.492
730.051
782.846
838.472
903.668
908.945
854.708
658.667
407.845
332.12
330.969
340.127
360.777
386.761
412.259
434.484
453.645
472.115
493.324
519.914
539.047
537.612
515.483
445.75
356.592
315.673
308.24
309.107
313.943
324.577
340.374
352.057
352.032
345.574
340.683
294
294
294
294
294
294
294
294
294
294
294
294
294
294
294
294
294
294
294
294
294
294
294
294
294
294
294
294.001
294.003
294.007
294.009
294.006
294.003
294.001
294.001
294.001
294.002
294.005
294.013
294.034
294.115
294.411
295.389
298.333
305.155
317.94
337.4
363.477
395.286
434.998
487.732
563.058
610.877
591.066
481.753
345.6
316.429
323.645
349.818
393.99
447.715
506.757
573.097
646.408
724.836
804.499
885.44
956.43
1025.53
1103.7
1123.48
1092.87
958.69
655.941
393.955
360.917
367.063
388.516
419.794
450.603
477.128
499.839
520.846
542.717
568.649
603.271
634.63
633.691
599.645
491.928
365.65
325.935
325.479
331.785
347.581
371.39
393.699
397.044
390.138
378.918
294
294
294
294
294
294
294
294
294
294
294
294
294
294
294
294
294
294
294
294
294
294
294
294
294.001
294.002
294.008
294.028
294.085
294.193
294.262
294.182
294.088
294.044
294.027
294.023
294.025
294.034
294.055
294.112
294.297
294.985
297.267
303.446
316.311
337.222
366.459
402.501
442.424
487.351
539.867
608.849
697.112
703.132
615.111
413.146
337.473
343.264
375.26
431.166
497.695
568.541
645.918
732.054
829.611
943.578
1064.16
1154.19
1244.58
1394.66
1455.56
1422.81
1275.7
977.211
568.462
398.862
393.736
408.14
439.314
475.082
507.953
536.921
563.98
591.626
622.127
659.372
709.663
739.941
730.169
661.809
498.197
370.927
352.952
358.595
377.607
408.172
439.475
447.83
440.933
423.121
294
294
294
294
294
294
294.001
294.002
294.004
294.005
294.004
294.002
294.001
294
294
294
294.001
294.002
294.002
294.001
294.002
294.003
294.007
294.014
294.03
294.07
294.189
294.556
295.536
297.568
299.564
298.313
296.113
295.029
294.575
294.419
294.381
294.382
294.385
294.442
294.709
296.07
300.43
311.146
331.245
361.047
400.081
445.667
494.167
547.217
606.858
676.727
774.348
806.848
739.239
502.586
365.321
365.61
398.366
462.351
539.497
619.531
708.556
815.655
956.251
1119.21
1269.14
1438.75
1600.04
1705.4
1736.17
1722.55
1647.1
1349.1
870.041
491.543
423.552
430.362
458.52
501.413
546.444
588.328
627.89
667.695
708.726
751.255
801.603
852.848
856.984
824.349
692.215
482.596
397.726
398.133
414.949
448.007
485.919
500.513
493.996
470.887
294
294
294
294
294.002
294.007
294.024
294.068
294.132
294.186
294.168
294.084
294.041
294.02
294.011
294.015
294.034
294.059
294.057
294.046
294.047
294.07
294.137
294.274
294.534
295.074
296.451
300.089
308.641
333.393
381.457
380.711
340.278
315.123
304.126
299.882
298.238
297.557
296.831
295.831
295.937
297.995
304.755
320.416
347.388
386.208
435.548
493.075
554.23
620.994
696.943
773.974
876.985
930.427
874.315
615.029
403.326
390.792
421.51
491.157
578.489
670.752
778.986
926.853
1122.52
1311.62
1556.59
1721.49
1763.21
1771.64
1775.33
1776.07
1761.78
1688.45
1262.12
763.009
481.46
467.13
489.131
539.348
601.121
662.599
720.512
773.39
821.337
863.98
906.308
947.62
957.465
943.236
860.066
643.006
467.417
448.158
461.012
495.417
538.251
556.02
549.164
520.708
294.001
294.003
294.007
294.018
294.065
294.227
294.691
295.796
297.362
299.051
299.534
297.102
295.579
294.773
294.41
294.401
294.752
295.285
295.353
295.102
294.997
295.214
296.026
297.668
300.26
304.397
311.129
323.922
354.625
464.924
735.799
879.998
815.385
643.185
436.147
358.286
326.591
310.547
304.743
300.165
299.207
301.442
310.042
329.852
363.943
412.695
474.899
550.618
633.459
726.851
830.619
919.026
1021.66
1084.27
1037.27
776.125
468.629
422.893
449.339
522.15
621.933
732.982
872.909
1072.99
1301.72
1562.51
1757.56
1772.91
1741.33
1621.58
1594.9
1637.29
1718.07
1716.26
1627.88
1137.26
614.266
520.02
537.35
593.114
673.369
754.8
824.979
878.832
915.121
939.094
962.471
987.87
990.886
979.622
935.614
777.172
561.973
508.925
519.871
558.092
607.906
623.867
613.94
574.483
294.111
294.312
294.387
294.486
295.17
297.435
303.575
317.646
338.69
370.476
415.813
382.956
339.483
315.997
305.17
301.657
304.754
314.184
318.942
314.311
310.529
308.708
310.567
316.376
329.05
349.197
373.303
406.25
481.559
678.291
1019.48
1363
1386.85
1329.87
1100.58
758.763
417.565
348.082
328.404
313.629
306.581
308.592
318.539
342.186
384.66
445.798
526.069
629.235
747.852
881.264
1024.08
1116.97
1209.2
1264.76
1226.17
992.623
601.307
470.153
489.221
562.428
676.522
809.879
990.325
1236.03
1508.28
1759.96
1771.32
1708
1451.95
1189.78
1187.94
1257.23
1483.47
1658.7
1641.44
1440.26
783.412
589.976
602.338
665.007
761.507
851.591
907.386
933.903
947.398
955.669
964.466
977.84
983.034
976.42
949.015
847.433
655.207
582.269
591.848
636.428
697.321
711.839
696.449
636.415
302.697
324.426
331.553
323.453
323.39
334.914
373.039
455.832
595.762
740.589
1092.13
1180.74
998.052
654.214
404.24
332.602
342.734
405.087
520.625
516.535
477.225
416.751
374.657
383.049
420.947
486.686
551.899
613.65
717.384
931.306
1289.47
1631.9
1648.7
1584.15
1440.32
1170.89
812.705
492.923
380.499
339.683
320.592
321.804
332.358
360.379
413.017
490.038
594.544
738.27
906.928
1085.68
1267.24
1353.34
1415.07
1447.03
1423
1242.83
811.035
539.167
545.401
617.445
747.225
907.783
1130.29
1389.66
1718.41
1787
1732.15
1397.12
1034.35
955.522
978.8
1061.46
1251.99
1529.2
1567.96
1404.86
825.325
658.126
676.073
752.013
853.058
921.096
936.312
935.69
932.794
931.554
933.526
941.64
951.663
950.69
928.607
846.607
702.522
653.91
668.364
727.154
803.606
819.987
798.655
711.437
1648.6
1719.17
1666.81
1366.23
890.146
662.027
676.272
807.429
1186.48
1734.47
1939.51
1921.23
1811.95
1419.39
789.812
429.517
437.361
554.656
833.383
953.786
909.094
740.675
541.721
538.338
598.755
720.274
829.74
906.521
994.877
1238.7
1643.65
1763.83
1699.5
1541.75
1371.88
1197.22
1023.03
785.435
542.796
400.01
342.769
341.935
353.269
386.462
450.68
547.717
686.85
885.335
1112.58
1328.39
1471.63
1521.07
1556.01
1583.77
1565.51
1475.5
1019.46
619.173
612.454
689.233
838.751
1028.84
1278.21
1584.08
1811.72
1786.46
1578.24
1067.96
829.632
804.116
828.835
911.849
1106.44
1394.69
1458.78
1277
816.29
723.619
755.647
843.399
915.844
928.244
925.334
917.935
914.68
915.502
918.235
925.115
928.8
925.171
899.223
816.492
729.623
722.331
749.537
826.954
918.114
939.036
915.333
797.826
2106.39
2084.84
2034.13
1971.57
1499.57
1136.35
1129.81
1413.71
1894.08
2051.34
2088.94
2004.32
1709.73
1306.48
853.435
555.084
583.22
771.875
1076.8
1383.42
1393.91
1240.16
844.902
769.872
848.074
993.276
1105.13
1221.38
1362.81
1634.43
1889.35
1909.43
1816.22
1641.36
1490.94
1283.16
1105.15
1002.02
810.269
555.332
391.113
372.086
384.199
423.722
505.293
634.343
825.459
1086.05
1356.44
1516.11
1520.8
1532.17
1540.95
1574.45
1569.89
1501.09
1071.5
681.229
681.233
777.325
955.913
1172.86
1418.96
1762.56
1845.51
1773.47
1371.74
893.622
728.411
728.493
756.045
831.79
1001.87
1276.85
1308.7
1111.87
810.96
787.571
835.882
907.023
925.272
922.143
914.148
909.611
909.687
911.125
912.767
911.886
906.997
890.985
849.05
789.845
779.188
792.671
844.872
922.688
997.315
1017.86
994.955
887.771
2106.19
2115.01
2115.75
2061.59
1996.03
1879.16
1862.64
1990.19
2080.15
2137.5
2124.34
1985.17
1542.54
1050.33
770.155
722.414
808.802
1066.77
1509.26
1645.26
1588
1297.84
985.526
978.382
1067.79
1302.42
1496.15
1628.3
1775.81
1953.09
2035.97
2039.46
1987.41
1832.8
1570.86
1168.27
980.616
984
948.951
785.239
509.959
418.904
429.291
474.561
577.731
750.332
1001.18
1334.42
1520.25
1450.38
1229
1227.78
1311.61
1475.58
1539.74
1473.66
1044.94
733.327
754.352
887.211
1100.84
1317.98
1589.66
1870.21
1875.49
1756.92
1249.2
759.056
684.036
691.4
727.475
802.6
954.442
1165.82
1154.98
965.142
826.925
843.441
901.034
927.9
926.005
916.773
913.136
913.914
914.535
913.877
912.066
906.038
891.178
863.699
833.759
825.982
842.945
886.042
939.114
974.293
1008.09
1033.72
1023.52
950.004
2102.82
2104.38
2108.33
2114.95
2112.93
2088.29
2080.44
2113.22
2121.46
2129.32
2131.8
2048.22
1701.73
1118.88
930.156
945.761
1145.49
1575.47
1766.82
1675.77
1470.2
1275.91
1134.28
1152.5
1422.5
1709.82
1882.82
1970.66
2021.49
2060.56
2094.03
2099.91
2066.79
1892.35
1503.04
1063.95
894.523
901.298
922.916
872.507
665.789
494.019
494.988
544.853
679.951
913.253
1234.35
1538.76
1475.37
1113.79
895.441
914.679
1020.34
1243.92
1456.01
1405.06
993.16
786.466
838.402
1019.09
1257.63
1458.91
1778.02
1943.46
1913.71
1746.09
1183.17
711.009
664.436
677.279
722.858
811.48
958.549
1066.49
1015.99
873.399
856.994
900.358
937.302
936.674
933.87
936.145
944.423
952.786
952.57
947.603
939.688
932.771
924.409
907.866
897.627
906.657
947.817
977.689
978.574
977.851
981.76
994.749
1007.27
971.079
2102.59
2102.64
2102.98
2103.7
2105.31
2107.52
2108.63
2106.68
2108.08
2111.45
2116.11
2093.38
1997.45
1659.18
1408.52
1464.39
1741.05
1960.64
1961.78
1786.51
1487.93
1314.01
1343.48
1539.3
1862.83
2000.02
2037.53
2050.47
2052.85
2062.67
2068.96
2095.47
2101.75
1930.93
1445.86
1022.74
868.963
867.565
896.139
880.712
773.538
589.295
577.934
640.3
827.75
1118.98
1500.92
1561.93
1164.98
759.381
681.56
717.204
823.309
1054.45
1328.12
1285.3
931.422
845.581
941.864
1173.14
1403.04
1667.54
1932.89
2002.08
1950.57
1746.2
1171.82
706.311
656.853
671.624
728.713
840.319
955.46
965.29
895.64
858.696
896.567
952.186
968.787
973.457
982.284
1002.19
1029.59
1043.47
1042.99
1035.59
1022.87
1011.45
1004.58
996.363
990.865
990.513
990.939
983.252
985.063
994.897
990.935
986.694
991.629
978.078
2102.61
2102.46
2102.13
2101.52
2100.87
2100.13
2098.88
2095.71
2091.11
2083.86
2080.95
2086.97
2051.52
2005.49
1973.72
1984.53
2008.81
2056.37
2052.35
1998.14
1845.61
1725.76
1794.69
1972.87
2007.92
2025.87
2016.6
1991.37
1961.34
1936.04
1944.32
2025.8
2111.19
2003.93
1633.68
1096.76
914.801
859.305
874.539
867.992
799.196
660.453
662.82
764.529
1014.58
1363.94
1634.74
1435.78
841.516
591.976
592.718
642.521
757.704
983.148
1224.35
1143.63
898.933
907.929
1072.88
1323.43
1598.96
1874.18
2035.77
2048.36
1984.35
1759.81
1272.39
749.459
655.551
665.395
716.466
826.383
885.932
871.076
853.376
877.438
959.791
1019.71
1041.8
1058.22
1082.87
1118.67
1152.7
1162.48
1159.18
1144.15
1119.13
1087.97
1055.48
1031.27
1008.96
975.357
973.482
1009.57
1071.66
1139.79
1140.46
1069.49
1006.01
988.974
2102.46
2101.82
2100.56
2098.28
2094.98
2091.04
2085.77
2077.45
2065.62
2044.74
2023.54
2017.69
2026.93
2019.28
2005.99
2008.66
2021.94
2020.66
2009.81
2013.14
1995
1992.63
1982.61
1963
1937.8
1913.18
1850.32
1774.66
1729.91
1722.33
1762.85
1911.73
2081.76
2058.48
1973.93
1642.77
1068.42
896.795
848.578
842.781
778.874
714.074
754.378
927.523
1199.87
1641.91
1674.3
1171.2
628.983
540.686
562.462
640.059
783.248
1010.92
1134.1
1012.73
904.693
991.766
1222.12
1476.24
1815.85
2020.03
2089.49
2080.47
2000.27
1773.48
1390.21
860.018
666.171
659.999
687.898
750.918
796.53
822.024
860.246
944.406
1062.14
1126.26
1156.7
1181.52
1213.11
1250.07
1272.54
1273.06
1267.3
1250.57
1223.56
1167.42
1074.74
994.754
983.925
996.569
1036.35
1106.93
1256.63
1357.56
1364.01
1164.93
1018.79
1008.78
2101.47
2097.94
2091.48
2081.87
2070.63
2059.15
2045.76
2028.75
2004.75
1966.89
1925.9
1905.14
1911.24
1927.21
1930.85
1921.19
1892.41
1853.2
1835.28
1845.31
1860.27
1857.42
1823.77
1785.17
1738.42
1677
1558.96
1469.82
1461.06
1489.81
1580.58
1764.25
1971
1999.62
2005.83
1990.7
1646.57
1045.08
864.546
811.457
770.229
776.411
885.395
1108.89
1532.57
1778.54
1656.74
954.42
548.515
527.196
555.01
653.563
836.446
1031.91
1037.78
930.225
949.307
1106.27
1356.89
1707.52
1992.61
2096.5
2117.52
2103.16
2009.38
1784.21
1485.46
1040.75
735.415
675.808
685.772
727.039
782.71
837.788
922.721
1058.21
1191.24
1255.69
1285.44
1306.1
1327.16
1348.35
1426.29
1465.86
1463.36
1430.54
1351.15
1272.4
1163.56
1071.03
1061.66
1081.09
1164.2
1354.12
1596.21
1596.35
1479.96
1151
1026.71
1034.25
2093.06
2071.52
2039.27
1994.19
1957.93
1938.48
1922.1
1896.05
1853.55
1785.65
1721.92
1693.39
1701.93
1718.97
1721.69
1705.14
1663.36
1616.03
1585.73
1587.23
1601.52
1601.42
1586.44
1550.32
1470.6
1353.53
1219.13
1188.23
1217.76
1286.88
1396.99
1576.98
1752.87
1778.05
1808.05
1899.01
1980.67
1301.79
960.673
842.161
819.032
885.591
1063.33
1361.94
1825.61
1860.92
1596.1
851.022
540.127
525.599
551.229
642.204
837.49
969.893
931.843
920
1014.25
1243.31
1565.54
1920.45
2080.76
2130.59
2133.93
2118.81
2016.18
1800.76
1560.31
1223
884.345
745.456
733.554
758.34
818.639
911.496
1041.42
1200.71
1322.52
1372.4
1391.58
1400.51
1465.75
1617.36
1761.11
1814.61
1814.33
1778.03
1686.18
1520.13
1312.01
1197.6
1193.97
1222.12
1430.91
1720.5
1861.46
1772.72
1502.16
1126.65
1043.68
1070.46
1988.31
1850.13
1745.66
1663.51
1634
1640.92
1635.69
1604.9
1539.13
1442.9
1369.31
1348.2
1363.88
1384.68
1389.98
1381.09
1350.6
1327.15
1320.11
1331.01
1353.52
1358.15
1340.55
1277.78
1153.03
1027.58
958.888
969.54
1035.83
1117.54
1218.21
1355.12
1464.03
1445.49
1460.22
1567.69
1851.2
1824.11
1083.88
952.373
951.657
1056.64
1272.1
1713.9
1998.59
1947.84
1565.09
848.983
594.925
566.478
576.858
626.806
751.843
834.466
867.151
940.718
1125.71
1397.21
1810.13
2046.78
2120.27
2131.21
2135.55
2128.53
2020.08
1819.98
1626.59
1378
1069.7
881.586
837.318
855.089
926.715
1045.24
1194.48
1339.91
1431.51
1460.85
1487.61
1601.93
1763.43
1935.76
1999.87
2015.21
2017.67
2007.6
1960.42
1843.23
1667.22
1525.57
1514.11
1576.47
1792.25
1988.34
2024.03
1899.87
1509.43
1138.77
1072.62
1123.17
568.289
780.712
908.623
982.907
1040.25
1099.03
1100.17
1071.45
1008.64
942.263
918.807
926.756
948.809
970.13
991.914
1015.5
1025.23
1039.97
1056.87
1078.21
1099.83
1094.82
1054.77
972.937
865.385
800.921
790.286
821.09
900.141
965.949
1036.19
1114.19
1142.58
1103.26
1107.61
1179.79
1461.55
1940.8
1558.32
1152.75
1137.71
1309.3
1652.36
1999.85
2078.38
2032.88
1579.76
945.747
695.66
647.329
646.3
663.454
727.661
806.553
887.563
1031.05
1266.29
1674.25
2009.26
2094.38
2098.32
2099.88
2118.06
2133.35
2026.85
1851.14
1695.61
1508
1272.73
1087.27
1019.71
1029.06
1099.21
1220.11
1348.59
1454.47
1527.15
1613.12
1742.2
1903.9
1996.02
1974.04
1958.22
1965.38
1985.75
2017.25
2029.08
2016.32
1981.81
1907
1896.89
1941.41
2005
2033.95
2053.21
2009.94
1546.31
1193.48
1118.66
1201.94
312.762
359.621
405.294
448.373
488.127
523.852
532.514
529.516
524.666
528.705
546.95
574.614
605.028
637.542
673.034
704.042
720.475
745.454
768.582
789.68
811.713
803.382
774.131
734.652
694.618
681.574
688.884
726.943
792.008
826.027
853.73
870.32
851.001
808.801
813.469
862.329
1031.69
1535.93
1948.15
1678.62
1604.67
1803.71
1996.55
2022.79
2078.98
2067.51
1665.26
1106.99
865.65
798.782
781.371
764.743
788.018
864.816
1003.03
1194.14
1535.18
1952.26
2052.97
2053.22
2019.83
2029.48
2090.14
2134.51
2040.91
1905.76
1784.58
1637.84
1452.09
1308.4
1243.81
1246.11
1298.54
1389.15
1479.82
1583.36
1731.83
1883.88
1991.38
1941.67
1798.41
1658.38
1644.63
1672.28
1732.61
1800.74
1846.78
1897.57
1935.98
1962.96
1962.44
1950.65
1889.85
1885.34
1959.02
2069.26
1644.53
1302.34
1194.01
1311.93
295.155
299.973
305.978
313.018
321.384
330.371
338.217
345.433
352.151
360.355
372.067
386.173
401.31
420.068
444.357
474.062
505.219
535.603
565.597
598.792
631.515
649.512
647.767
639.393
626.665
626.711
637.83
665.679
700.843
704.124
698.565
675.33
642.755
615.782
622.462
658.256
751.639
994.58
1421.76
1867.25
1944.45
1909.46
1863.75
1887.95
1976.24
2072.42
1822.03
1277.16
1101.81
1030.3
997.496
953.736
956.305
1048.18
1194.53
1465.91
1875.43
2020.55
1949.89
1890.02
1871.79
1921.82
2059.15
2135.89
2069.98
1989.3
1909.15
1799.84
1642.5
1505.8
1444.51
1440.67
1477.43
1551.4
1667.98
1831.19
1984.47
1939.57
1713.59
1392.71
1224.23
1196.78
1217.69
1286.09
1349.64
1392.26
1417.51
1454.56
1499.56
1567.9
1573.14
1550.71
1524.68
1571.09
1737.44
2057.69
1807.88
1420.69
1301.64
1434.37
294.073
294.453
295.085
296.068
297.566
299.49
301.52
303.692
305.929
308.643
312.446
318.406
326.738
337.648
359.745
398.894
452.967
517.417
577.661
627.358
645.787
644.727
628.145
607.461
603.258
606.527
614.117
627.538
636.438
629.589
609.404
576.41
548.276
540
546.212
569.421
625.199
746.018
937.698
1214.81
1394
1457.89
1544.26
1654.95
1800.57
2006.08
1999.37
1572.15
1351.04
1274.13
1244.98
1193.69
1186.43
1302.29
1546.99
1861.34
1986.53
1783.69
1643.23
1633.32
1680.99
1833.05
2038.58
2133.61
2104.95
2069.06
2037.51
1992.2
1888.46
1763.76
1692.97
1687.56
1727.78
1812.42
1945.54
1965.34
1688.09
1211.7
942.162
857.046
847.939
862.513
910.882
977.657
1005.71
1014.58
1017.05
1024.03
1036.85
1064.67
1088.74
1120.89
1172.38
1292.99
1502.85
1927.31
1988.38
1546.75
1431.37
1590.56
294.004
294.033
294.094
294.214
294.439
294.757
295.085
295.473
296.066
297.303
299.537
305.6
323.996
358.712
412.948
483.6
563.189
638.035
696.157
706.062
687.597
647.016
608.185
595.603
597.548
602.633
609.794
617.204
616.953
608.548
585.158
549.705
523.072
521.041
526.385
544.272
590.486
673.868
789.293
936.166
1062.97
1179.54
1310.88
1449.59
1600.53
1827.33
2047.76
1918.18
1764.34
1682.74
1636.24
1581.22
1626.73
1775.04
1971.91
1952.21
1590.9
1296.32
1278.25
1356.32
1528.08
1765.08
1992.08
2092.19
2076.72
2030.42
1994.79
1996.97
2007.34
2001.67
1978.94
1978.44
1990.2
1959.01
1727.81
1142.29
806.361
705.773
687.357
692.029
707.811
732.878
766.092
800.697
822.719
836.061
845.175
853.88
863.958
878.677
899.345
932.309
989.261
1105.57
1283.27
1680.82
2051.41
1796.2
1624.75
1835.89
294
294.002
294.007
294.019
294.044
294.084
294.142
294.272
294.577
295.628
299.124
310.132
341.996
407.058
506.63
621.465
722.874
773.569
774.56
735.004
659.222
608.25
592.935
602.378
620.357
641.087
657.168
666.715
672.069
679.383
677.675
668.867
651.744
642.589
635.307
631.101
643.778
684.032
769.343
879.957
997.104
1111.96
1219.86
1325.72
1441.02
1615.27
1915.15
2040.45
2034.81
2019.63
2006.19
1987.61
2001.55
1977.63
1792.13
1291.12
946.65
911.802
978.56
1143.83
1386.58
1658.87
1872.73
1914.34
1838.64
1696.05
1547.9
1523.43
1573.08
1660.32
1711.45
1633.73
1363.71
968.809
714.27
620.556
605.049
609.89
625.428
649.394
673.686
698.62
723.549
746.934
767.305
783.668
796.276
806.861
817.831
830.586
848.546
876.912
917.507
988.981
1104.49
1392.59
1894.45
2019.14
1906.7
2036.87
294
294
294.001
294.002
294.004
294.011
294.041
294.151
294.554
295.967
300.775
316.434
362.849
457.524
595.386
733.141
816.794
812.292
758.332
655.922
585.844
587.295
612.157
654.13
697.194
736.038
778.505
820.353
860.074
903.652
912.67
900.503
869.623
837.782
800.447
768.631
759.388
784.282
866.098
971.723
1083.84
1173.42
1242.77
1307.48
1393.92
1512.17
1685.82
1875.01
1953.74
1983.47
1972.67
1917.09
1726.18
1318.27
867.47
683.497
657.049
684.366
770.817
949.837
1218.69
1484.12
1603.67
1529.06
1324.68
1101.95
905.081
827.07
811.595
800.268
718.558
629.984
576.378
550.562
550.878
572.751
612.353
649.324
677.289
697.445
712.662
727.613
740.4
757.348
785.801
818.037
849.033
877.069
901.671
903.77
897.084
896.418
908.401
938.118
1005.87
1157.03
1490.73
1956.15
2040.76
2056.07
294
294
294
294
294
294.003
294.022
294.114
294.466
295.743
300.214
315.224
362.803
471.288
633.933
777.926
820.338
783.95
664.236
555.007
560.565
605.099
668.77
710.547
752.061
809.32
876.845
947.354
1018.38
1083.45
1109.41
1098.14
1058.87
1004.14
943.335
900.075
891.72
937.879
1036.28
1119.43
1179.52
1239.22
1329.9
1409.48
1462.43
1520.86
1620.45
1716.43
1755.1
1724.2
1530.64
1198.07
822.785
597.695
553.417
563.453
577.275
597.27
644.3
779.027
1036.82
1227.78
1172.56
1001.15
768.821
622.056
538.619
490.678
477.266
475.54
477.652
489.939
525.823
577.986
634.657
676.286
701.301
722.79
751.506
789.02
826.433
862.095
897.512
948.279
1031.97
1119.03
1185.48
1249.8
1309.91
1295.46
1233.06
1127.54
1059.87
1032.46
1034.2
1056.79
1148.08
1432.14
1741.43
1846.99
294
294
294
294
294
294.001
294.013
294.101
294.452
295.783
300.592
317.075
370
489.753
652.969
771.776
784.741
691.733
535.247
496.383
556.383
653.292
703.256
729.044
771.38
846.43
938.464
1037.7
1131.34
1202.18
1230.54
1218.43
1174.85
1107.71
1040.07
1006.38
1027.53
1094.22
1127.42
1129.53
1119.41
1181.42
1382.38
1532.31
1584.48
1608.65
1622.26
1625.68
1519.16
1237.07
839.177
582.405
501.452
504.802
542.008
596.025
603.802
588.106
599.013
674.557
887.987
888.109
743.733
591.416
490.804
444.718
433.92
434.747
445.316
468.331
508.501
570.062
646.529
697.262
710.452
724.624
770.987
854.216
977.315
1107.62
1196.21
1253.69
1297.35
1350.26
1422.68
1494.87
1556.57
1614.78
1688.49
1721.54
1702.59
1621.53
1493.69
1360.98
1293.76
1195.25
1141.13
1183.14
1304.95
1540.35
294
294
294
294
294
294
294.006
294.053
294.294
295.239
298.797
311.528
354.022
464.023
622.369
720.082
695.117
560.286
432.144
454.341
565.986
672.356
692.774
700.571
755.776
853.812
969.929
1098.94
1204.13
1270.13
1293.49
1280.54
1231.68
1160.92
1107.25
1099.24
1116.18
1110.27
1012.15
892.636
845.632
979.314
1405.55
1597.2
1649.03
1646.16
1570.22
1408.33
1067.94
696.355
506.367
474.385
485.144
511.408
571.689
673.36
684.276
639.056
620.18
681.568
749.629
643.098
514.267
449.811
428.101
429.513
449.501
485.434
537.54
592.255
655.115
709.682
717.092
711.108
725.605
816.625
1010.29
1250.59
1404.86
1457.68
1480.8
1497.02
1517.17
1540.38
1568.66
1614.37
1672.06
1737.6
1818.59
1905.98
1939.15
1923.27
1888.74
1824.67
1791.24
1657.73
1362.25
1172.88
1184.35
1316.56
294
294
294
294
294
294
294.002
294.023
294.173
294.811
297.274
306.254
336.729
427.833
567.751
620.119
562.599
413.532
365.384
418.721
572.226
654.731
641.234
625.27
681.78
818.818
979.773
1134.71
1242.09
1300.15
1318.47
1303.91
1249.19
1188.73
1163.13
1151.95
1088.89
947.274
729.481
579.638
543.275
737.875
1352.08
1575.45
1629.37
1581.77
1355.64
981.277
643.039
518.906
492.496
484.726
487.516
515.254
591.202
713.091
748.936
701.936
659.323
684.927
639.901
532.99
461.126
451.935
460.78
489.311
551.36
637.997
694.4
727.749
726.695
707.608
672.777
690.729
810.157
1150.84
1436.6
1539.48
1539.01
1524.39
1513.56
1512.98
1522.3
1537.42
1556.65
1604.84
1676.89
1769.11
1889.05
2004.45
2071.67
2075.46
2077.25
2074.54
2083.49
2052.44
1823.58
1346.47
1153.25
1178.44
294
294
294
294
294
294
294.001
294.007
294.062
294.387
295.681
300.565
317.856
375.043
482.632
518.008
476.184
362.692
335.345
384.532
540.437
615.184
583.457
556.884
596.716
749.968
970.697
1147.39
1254.51
1309.97
1326.02
1312.41
1266.1
1224.7
1178.86
1097.2
928.548
687.287
493.407
407.067
388.901
510.573
1106.36
1478.69
1544.41
1367.18
1011.65
703.494
597.903
568.653
565.85
521.251
478.92
494.809
580.165
725.75
795.198
743.864
687.825
660.16
591.834
527.442
496.114
497.855
523.824
594.323
688.494
744.28
753.887
738.508
691.719
641.332
668.625
807.698
1189.66
1545.34
1568
1485.79
1368.2
1281.45
1247.47
1250.65
1271.85
1319.48
1396.97
1511.46
1643.08
1803.23
1989.09
2100.76
2126.95
2123.12
2119.85
2118.32
2116.43
2126.48
2097.68
1670.21
1196.04
1143.05
294
294
294
294
294
294
294
294.001
294.015
294.125
294.654
296.747
304.633
332.141
392.64
409.572
383.698
323.401
317.743
358.683
498.434
590.216
562.912
524.018
520.696
652.847
922.038
1129.8
1244.78
1307.55
1324.48
1316.33
1272.52
1214.2
1121.92
942.726
698.554
492.629
385.703
351.531
338.014
351.038
635.09
1238.18
1405.4
1242.44
924.886
743.578
690.813
759.514
772.903
628.991
479.66
464.865
532.425
716.475
829.875
777.973
714.114
685.355
665.2
575.132
529.235
543.308
608.842
706.963
761.919
775.563
784.085
742.924
683.616
734.929
873.208
1267.85
1610.2
1544.58
1327.35
1082.79
980.533
964.098
974.581
1011.55
1085.23
1199.06
1337.37
1499.43
1711
1932.53
2089.61
2132.8
2088
2065.7
2056.79
2065.53
2084.58
2112.35
2129.37
1815.82
1244.32
1150.18
294
294
294
294
294
294
294
294
294.002
294.021
294.149
294.698
296.881
304.764
320.535
321.894
314.574
302.508
303.645
327.353
413.463
532.557
539.249
511.821
463.674
552.049
849.433
1070.29
1196.74
1282.99
1307.72
1304.05
1252.46
1155.32
982.196
739.628
518.783
398.482
354.819
339.046
324.099
318.863
337.084
585.514
1109.8
1201.45
1038.51
920.93
941.066
1020.82
983.151
775.995
497.414
438.503
488.22
662.59
844.024
825.25
781.284
789.771
731.695
577.776
552.673
601.932
700.392
762.068
765.099
867.997
1058.11
1099.11
1068.97
1206.62
1475.62
1668.65
1511.89
1146.71
875.049
759.821
748.648
764.892
811.755
899.59
1027.74
1184.21
1384.29
1634.98
1883.3
2038.26
2119.91
2125.39
2045.25
2004.39
2011.26
2041
2085.83
2062.37
1964.04
1642.95
1248.13
1174.92
294
294
294
294
294
294
294
294
294
294.002
294.02
294.125
294.557
295.685
297.09
297.192
296.33
295.421
296.541
304.232
333.369
402.268
453.043
439.345
402.87
459.166
759.363
996.494
1108.9
1217.98
1259.15
1259.49
1174.56
1001.03
751.805
525.391
425.33
399.579
419.903
427.87
362.194
320.721
308.592
321.913
443.03
785.134
979.413
995.172
1042.43
1066.53
1023.35
849.905
522.453
415.786
450.381
586.716
814.11
896.236
891.66
868.905
738.053
548.249
566.752
659.495
742.052
726.378
811.472
1139.56
1459.89
1561.45
1580.48
1661.88
1684.49
1459.04
1029.49
735.443
612.435
585.244
598.152
644.021
734.47
869.556
1039.61
1255.38
1527.59
1801.82
1971.45
2050.1
2098.37
2128.12
2028.43
2001.59
2055.1
2086.5
1419.44
1278.78
1326.07
1327.18
1259.95
1247.26
294
294
294
294
294
294
294
294
294
294
294.002
294.013
294.061
294.17
294.278
294.287
294.217
294.168
294.431
295.974
301.83
314.802
330.244
334.589
332.954
373.077
616.139
889.631
953.236
1023.88
1105.5
1109.74
955.053
732.531
544.12
461.838
450.938
514.7
554.654
550.546
457.17
362.456
314.344
300.843
309.128
359.952
510.052
645.422
815.766
914.813
882.299
725.901
484.726
392.479
413.166
506.491
727.126
901.441
939.44
868.296
602.475
507.685
580.296
692.522
703.333
701.399
947.95
1339.35
1610.54
1712.48
1726.3
1656.92
1397.63
966.873
654.658
513.617
471.212
472.393
499.123
574.233
704.589
871.066
1064.16
1311.38
1626.01
1884.19
1834.5
1803.18
1908.84
2113.28
2086.6
2070.33
2078.19
1659.49
722.745
708.432
817.245
1046.59
1216.73
1288.14
294
294
294
294
294
294
294
294
294
294
294
294.001
294.005
294.013
294.02
294.021
294.016
294.015
294.048
294.237
294.959
296.497
298.481
299.979
302.192
319.859
416.331
710.011
860.593
872.575
840.983
772.458
648.096
525.446
457.286
437.327
464.953
549.349
604.182
589.361
513.752
401.798
326.245
300.796
297.46
302.503
320.76
359.204
444.994
553.344
545.112
492.735
409.078
369.615
385.278
454.474
628.791
851.224
881.222
703.608
468.777
490.516
602.081
676.503
659.621
748.766
1045.97
1405.46
1595.31
1639.83
1588.03
1351.55
957.954
634.339
464.45
401.918
387.989
393.766
431.925
531.219
688.642
857.415
1047.86
1311.77
1662.35
1608.37
1359.54
1399.68
1711.57
2062.01
2080.81
2034.9
1286.43
669.802
415.514
455.693
550.88
775.446
1074.62
1263.17
294
294
294
294
294
294
294
294
294
294
294
294
294
294.001
294.001
294.001
294.001
294.001
294.004
294.02
294.083
294.23
294.472
294.748
295.287
299.703
322.435
412.472
595.217
742.88
762.181
720.618
655.236
572.775
507.874
476.925
502.704
567.662
614.768
592.283
519.298
411.372
331.939
302.294
295.631
295.763
298.526
305.93
321.911
341.674
357.82
365.484
358.017
349.676
364.193
422.396
579.931
785.211
758.413
511.114
412.78
485.39
619.589
643.581
634.907
778.414
1088.69
1354.72
1439.17
1397.91
1253.8
971.752
667.879
466.557
380.102
348.09
338.268
344.514
383.885
493.646
636.738
723.217
851.431
1090.99
1221.39
1020.08
866.824
1063.43
1510.51
1595.86
1502.18
1290.92
791.83
401.521
336.69
389.177
551.531
793.689
1095.23
1242.33
294
294
294
294
294
294
294
294
294
294
294
294
294
294
294
294
294
294
294
294.001
294.006
294.018
294.041
294.076
294.152
294.721
298.136
312.195
355.797
432.26
531.351
598.701
610.293
593.407
579.738
569.982
582.138
588.073
563.169