/*--------------------------------*- C++ -*----------------------------------*\
| =========                 |                                                 |
| \\      /  F ield         | OpenFOAM: The Open Source CFD Toolbox           |
|  \\    /   O peration     | Version:  2.3.0                                 |
|   \\  /    A nd           | Web:      www.OpenFOAM.org                      |
|    \\/     M anipulation  |                                                 |
\*---------------------------------------------------------------------------*/
FoamFile
{
    version     2.0;
    format      ascii;
    class       volScalarField;
    location    "0.02";
    object      thermo:mu;
}
// * * * * * * * * * * * * * * * * * * * * * * * * * * * * * * * * * * * * * //

dimensions      [1 -1 -1 0 0 0 0];

internalField   nonuniform List<scalar> 
5000
(
1.81402e-05
1.81402e-05
1.81402e-05
1.81402e-05
1.81402e-05
1.81402e-05
1.81402e-05
1.81402e-05
1.81402e-05
1.81402e-05
1.81402e-05
1.81402e-05
1.81402e-05
1.81402e-05
1.81402e-05
1.81402e-05
1.81402e-05
1.81402e-05
1.81402e-05
1.81402e-05
1.81402e-05
1.81402e-05
1.81402e-05
1.81402e-05
1.81402e-05
1.81402e-05
1.81402e-05
1.81402e-05
1.81402e-05
1.81402e-05
1.81402e-05
1.81402e-05
1.81402e-05
1.81402e-05
1.81402e-05
1.81402e-05
1.81402e-05
1.81402e-05
1.81402e-05
1.81402e-05
1.81403e-05
1.81406e-05
1.81415e-05
1.81441e-05
1.81494e-05
1.81573e-05
1.81697e-05
1.81871e-05
1.82069e-05
1.82286e-05
1.82317e-05
1.82166e-05
1.81988e-05
1.8182e-05
1.81691e-05
1.81635e-05
1.81688e-05
1.81878e-05
1.82353e-05
1.83418e-05
1.85325e-05
1.88051e-05
1.91492e-05
1.95525e-05
2.00028e-05
2.04802e-05
2.09429e-05
2.12886e-05
2.13063e-05
2.08533e-05
2.02397e-05
1.96453e-05
1.90642e-05
1.84652e-05
1.83012e-05
1.83075e-05
1.83445e-05
1.84058e-05
1.84845e-05
1.85768e-05
1.86768e-05
1.87754e-05
1.88607e-05
1.88952e-05
1.88309e-05
1.87028e-05
1.85676e-05
1.84508e-05
1.83564e-05
1.82899e-05
1.82479e-05
1.82331e-05
1.82408e-05
1.82636e-05
1.83071e-05
1.83721e-05
1.84202e-05
1.84395e-05
1.84516e-05
1.84718e-05
1.81402e-05
1.81402e-05
1.81402e-05
1.81402e-05
1.81402e-05
1.81402e-05
1.81402e-05
1.81402e-05
1.81402e-05
1.81402e-05
1.81402e-05
1.81402e-05
1.81402e-05
1.81402e-05
1.81402e-05
1.81402e-05
1.81402e-05
1.81402e-05
1.81402e-05
1.81402e-05
1.81402e-05
1.81402e-05
1.81402e-05
1.81402e-05
1.81402e-05
1.81402e-05
1.81402e-05
1.81402e-05
1.81402e-05
1.81402e-05
1.81402e-05
1.81402e-05
1.81402e-05
1.81402e-05
1.81402e-05
1.81402e-05
1.81402e-05
1.81402e-05
1.81402e-05
1.81404e-05
1.81409e-05
1.81427e-05
1.81489e-05
1.8167e-05
1.82082e-05
1.82906e-05
1.84387e-05
1.86799e-05
1.90614e-05
1.97971e-05
2.03468e-05
2.00687e-05
1.95635e-05
1.91028e-05
1.87703e-05
1.84489e-05
1.83172e-05
1.83891e-05
1.86626e-05
1.92071e-05
2.00132e-05
2.1037e-05
2.23311e-05
2.39176e-05
2.57442e-05
2.76402e-05
2.94387e-05
3.12138e-05
3.31183e-05
3.36728e-05
3.29854e-05
2.96624e-05
2.37445e-05
1.98114e-05
1.88226e-05
1.88373e-05
1.90528e-05
1.95334e-05
2.01601e-05
2.08334e-05
2.14871e-05
2.21121e-05
2.28063e-05
2.35534e-05
2.3803e-05
2.36003e-05
2.26548e-05
2.10526e-05
1.99245e-05
1.9134e-05
1.85502e-05
1.84212e-05
1.8441e-05
1.85325e-05
1.87582e-05
1.91219e-05
1.92895e-05
1.9264e-05
1.91353e-05
1.91289e-05
1.81402e-05
1.81402e-05
1.81402e-05
1.81402e-05
1.81402e-05
1.81402e-05
1.81402e-05
1.81402e-05
1.81402e-05
1.81402e-05
1.81402e-05
1.81402e-05
1.81402e-05
1.81402e-05
1.81402e-05
1.81402e-05
1.81402e-05
1.81402e-05
1.81402e-05
1.81402e-05
1.81402e-05
1.81402e-05
1.81402e-05
1.81402e-05
1.81402e-05
1.81402e-05
1.81402e-05
1.81402e-05
1.81402e-05
1.81402e-05
1.81402e-05
1.81402e-05
1.81402e-05
1.81402e-05
1.81402e-05
1.81402e-05
1.81402e-05
1.81403e-05
1.81404e-05
1.81408e-05
1.81423e-05
1.81478e-05
1.81663e-05
1.82234e-05
1.83572e-05
1.86347e-05
1.91335e-05
1.99113e-05
2.10213e-05
2.27115e-05
2.5205e-05
2.70017e-05
2.67546e-05
2.49024e-05
2.13874e-05
1.8992e-05
1.86263e-05
1.88531e-05
1.96589e-05
2.10117e-05
2.27568e-05
2.47553e-05
2.70105e-05
2.94879e-05
3.20446e-05
3.44764e-05
3.6619e-05
3.84108e-05
4.02297e-05
4.22804e-05
4.24428e-05
4.07483e-05
3.40827e-05
2.38064e-05
2.01289e-05
2.00704e-05
2.05343e-05
2.15607e-05
2.2816e-05
2.40107e-05
2.50242e-05
2.58783e-05
2.66853e-05
2.75931e-05
2.87043e-05
2.94864e-05
2.94282e-05
2.85211e-05
2.55286e-05
2.13549e-05
1.92832e-05
1.88949e-05
1.89404e-05
1.91932e-05
1.97433e-05
2.05467e-05
2.11305e-05
2.11293e-05
2.08076e-05
2.05623e-05
1.81402e-05
1.81402e-05
1.81402e-05
1.81402e-05
1.81402e-05
1.81402e-05
1.81402e-05
1.81402e-05
1.81402e-05
1.81402e-05
1.81402e-05
1.81402e-05
1.81402e-05
1.81402e-05
1.81402e-05
1.81402e-05
1.81402e-05
1.81402e-05
1.81402e-05
1.81402e-05
1.81402e-05
1.81402e-05
1.81402e-05
1.81402e-05
1.81402e-05
1.81402e-05
1.81402e-05
1.81402e-05
1.81404e-05
1.81406e-05
1.81407e-05
1.81405e-05
1.81404e-05
1.81403e-05
1.81403e-05
1.81403e-05
1.81403e-05
1.81405e-05
1.81409e-05
1.8142e-05
1.81464e-05
1.81622e-05
1.82145e-05
1.83714e-05
1.87327e-05
1.94009e-05
2.03967e-05
2.1693e-05
2.32194e-05
2.50474e-05
2.73556e-05
3.04482e-05
3.23029e-05
3.15439e-05
2.71003e-05
2.08089e-05
1.93225e-05
1.96954e-05
2.10193e-05
2.31583e-05
2.56159e-05
2.81581e-05
3.08441e-05
3.36328e-05
3.64383e-05
3.91269e-05
4.17154e-05
4.38818e-05
4.59078e-05
4.81113e-05
4.86554e-05
4.78112e-05
4.39493e-05
3.39831e-05
2.31566e-05
2.15676e-05
2.1868e-05
2.28993e-05
2.43572e-05
2.57439e-05
2.69017e-05
2.78681e-05
2.87427e-05
2.96347e-05
3.06691e-05
3.20131e-05
3.31963e-05
3.31613e-05
3.18742e-05
2.75339e-05
2.17992e-05
1.9813e-05
1.97897e-05
2.01119e-05
2.09079e-05
2.20782e-05
2.31446e-05
2.33021e-05
2.29762e-05
2.24412e-05
1.81402e-05
1.81402e-05
1.81402e-05
1.81402e-05
1.81402e-05
1.81402e-05
1.81402e-05
1.81402e-05
1.81402e-05
1.81402e-05
1.81402e-05
1.81402e-05
1.81402e-05
1.81402e-05
1.81402e-05
1.81402e-05
1.81402e-05
1.81402e-05
1.81402e-05
1.81402e-05
1.81402e-05
1.81402e-05
1.81402e-05
1.81402e-05
1.81402e-05
1.81403e-05
1.81406e-05
1.81417e-05
1.81448e-05
1.81505e-05
1.81542e-05
1.815e-05
1.81449e-05
1.81425e-05
1.81416e-05
1.81414e-05
1.81415e-05
1.8142e-05
1.81432e-05
1.81462e-05
1.81561e-05
1.81929e-05
1.83146e-05
1.86425e-05
1.93164e-05
2.03877e-05
2.18386e-05
2.35577e-05
2.53803e-05
2.73394e-05
2.95195e-05
3.22258e-05
3.54658e-05
3.56787e-05
3.24635e-05
2.40517e-05
2.04004e-05
2.06919e-05
2.22652e-05
2.48745e-05
2.77778e-05
3.06648e-05
3.36147e-05
3.66882e-05
3.99444e-05
4.34962e-05
4.70077e-05
4.94895e-05
5.18762e-05
5.56369e-05
5.70993e-05
5.63171e-05
5.26757e-05
4.44992e-05
3.06617e-05
2.33874e-05
2.31463e-05
2.38201e-05
2.52412e-05
2.68135e-05
2.8208e-05
2.94002e-05
3.04847e-05
3.15655e-05
3.27282e-05
3.41085e-05
3.59085e-05
3.69598e-05
3.6623e-05
3.41973e-05
2.77989e-05
2.20558e-05
2.11749e-05
2.14536e-05
2.23782e-05
2.38216e-05
2.52484e-05
2.5621e-05
2.53137e-05
2.45092e-05
1.81402e-05
1.81402e-05
1.81402e-05
1.81402e-05
1.81402e-05
1.81402e-05
1.81402e-05
1.81403e-05
1.81404e-05
1.81405e-05
1.81404e-05
1.81403e-05
1.81402e-05
1.81402e-05
1.81402e-05
1.81402e-05
1.81402e-05
1.81403e-05
1.81403e-05
1.81403e-05
1.81403e-05
1.81404e-05
1.81406e-05
1.8141e-05
1.81418e-05
1.81439e-05
1.81503e-05
1.81699e-05
1.82223e-05
1.83307e-05
1.84368e-05
1.83703e-05
1.82531e-05
1.81952e-05
1.8171e-05
1.81626e-05
1.81606e-05
1.81606e-05
1.81608e-05
1.81638e-05
1.81781e-05
1.82508e-05
1.84828e-05
1.90472e-05
2.00844e-05
2.1574e-05
2.34445e-05
2.55249e-05
2.76288e-05
2.9816e-05
3.215e-05
3.47376e-05
3.81268e-05
3.92039e-05
3.69357e-05
2.79835e-05
2.17831e-05
2.17972e-05
2.33641e-05
2.62606e-05
2.95046e-05
3.26305e-05
3.58697e-05
3.94917e-05
4.38764e-05
4.85382e-05
5.2508e-05
5.6699e-05
6.04389e-05
6.27708e-05
6.34369e-05
6.31427e-05
6.14904e-05
5.45199e-05
4.12331e-05
2.75176e-05
2.45288e-05
2.48382e-05
2.60929e-05
2.79342e-05
2.97849e-05
3.1438e-05
3.29446e-05
3.44112e-05
3.58756e-05
3.73467e-05
3.90317e-05
4.06891e-05
4.08205e-05
3.97742e-05
3.52919e-05
2.71364e-05
2.33341e-05
2.33532e-05
2.41348e-05
2.56289e-05
2.72784e-05
2.78964e-05
2.76215e-05
2.66321e-05
1.81402e-05
1.81402e-05
1.81402e-05
1.81402e-05
1.81403e-05
1.81406e-05
1.81415e-05
1.81439e-05
1.81472e-05
1.81502e-05
1.81492e-05
1.81447e-05
1.81424e-05
1.81412e-05
1.81408e-05
1.8141e-05
1.8142e-05
1.81433e-05
1.81433e-05
1.81427e-05
1.81427e-05
1.81439e-05
1.81475e-05
1.81549e-05
1.81687e-05
1.81976e-05
1.82711e-05
1.84647e-05
1.8916e-05
2.01937e-05
2.25629e-05
2.25272e-05
2.05419e-05
1.92546e-05
1.86784e-05
1.84537e-05
1.83663e-05
1.83301e-05
1.82914e-05
1.82381e-05
1.82437e-05
1.83534e-05
1.87116e-05
1.9529e-05
2.08982e-05
2.27896e-05
2.50721e-05
2.75825e-05
3.0097e-05
3.26856e-05
3.54598e-05
3.81143e-05
4.14511e-05
4.30987e-05
4.13674e-05
3.24604e-05
2.35962e-05
2.30072e-05
2.44357e-05
2.75012e-05
3.10552e-05
3.4522e-05
3.8282e-05
4.29902e-05
4.8629e-05
5.35853e-05
5.94525e-05
6.31198e-05
6.40168e-05
6.41965e-05
6.42751e-05
6.42909e-05
6.39861e-05
6.2401e-05
5.23281e-05
3.77454e-05
2.70877e-05
2.6469e-05
2.74152e-05
2.94985e-05
3.19308e-05
3.42261e-05
3.62879e-05
3.80947e-05
3.96765e-05
4.1042e-05
4.23617e-05
4.36178e-05
4.39127e-05
4.34859e-05
4.09182e-05
3.35071e-05
2.64815e-05
2.56355e-05
2.62021e-05
2.76816e-05
2.94541e-05
3.01684e-05
2.98942e-05
2.8737e-05
1.81402e-05
1.81404e-05
1.81406e-05
1.81412e-05
1.81437e-05
1.81523e-05
1.81772e-05
1.82362e-05
1.83197e-05
1.84095e-05
1.84352e-05
1.83058e-05
1.82246e-05
1.81815e-05
1.81621e-05
1.81616e-05
1.81804e-05
1.82089e-05
1.82125e-05
1.81991e-05
1.81935e-05
1.82051e-05
1.82485e-05
1.8336e-05
1.84738e-05
1.86927e-05
1.90463e-05
1.97097e-05
2.12577e-05
2.6373e-05
3.68173e-05
4.15455e-05
3.94829e-05
3.35138e-05
2.50991e-05
2.14383e-05
1.98467e-05
1.90159e-05
1.87109e-05
1.84687e-05
1.84179e-05
1.85364e-05
1.89894e-05
2.00134e-05
2.17158e-05
2.40309e-05
2.68056e-05
2.99525e-05
3.31527e-05
3.65082e-05
3.9977e-05
4.27517e-05
4.57963e-05
4.75718e-05
4.62443e-05
3.81864e-05
2.65342e-05
2.44988e-05
2.56879e-05
2.87965e-05
3.2721e-05
3.67202e-05
4.13233e-05
4.72561e-05
5.33361e-05
5.95878e-05
6.3896e-05
6.42237e-05
6.35478e-05
6.09222e-05
6.03228e-05
6.12726e-05
6.30458e-05
6.30066e-05
6.10629e-05
4.90311e-05
3.24315e-05
2.87087e-05
2.94175e-05
3.1623e-05
3.46165e-05
3.74673e-05
3.97947e-05
4.1509e-05
4.26322e-05
4.3361e-05
4.4062e-05
4.48131e-05
4.49016e-05
4.45704e-05
4.32559e-05
3.82214e-05
3.04051e-05
2.82486e-05
2.87025e-05
3.0251e-05
3.21899e-05
3.27937e-05
3.24191e-05
3.08984e-05
1.81461e-05
1.81569e-05
1.81609e-05
1.81662e-05
1.82028e-05
1.83236e-05
1.86493e-05
1.93856e-05
2.04618e-05
2.20339e-05
2.41745e-05
2.26346e-05
2.05018e-05
1.93001e-05
1.87334e-05
1.85478e-05
1.87115e-05
1.92057e-05
1.94528e-05
1.92123e-05
1.90149e-05
1.89195e-05
1.90169e-05
1.93197e-05
1.99725e-05
2.09884e-05
2.21708e-05
2.37323e-05
2.70919e-05
3.47939e-05
4.57334e-05
5.48628e-05
5.54469e-05
5.40422e-05
4.80252e-05
3.76017e-05
2.4255e-05
2.09329e-05
1.99395e-05
1.91768e-05
1.88078e-05
1.89134e-05
1.94319e-05
2.06378e-05
2.27159e-05
2.55307e-05
2.89574e-05
3.29949e-05
3.72306e-05
4.1585e-05
4.58658e-05
4.8477e-05
5.09538e-05
5.23959e-05
5.13981e-05
4.49525e-05
3.19379e-05
2.66003e-05
2.7419e-05
3.04232e-05
3.47302e-05
3.93032e-05
4.48852e-05
5.16546e-05
5.83381e-05
6.39473e-05
6.41898e-05
6.28273e-05
5.70135e-05
5.04412e-05
5.03922e-05
5.22024e-05
5.7758e-05
6.17473e-05
6.13648e-05
5.6735e-05
3.84296e-05
3.15018e-05
3.19774e-05
3.43137e-05
3.76946e-05
4.06491e-05
4.23949e-05
4.32041e-05
4.36111e-05
4.3859e-05
4.41214e-05
4.45178e-05
4.46709e-05
4.44758e-05
4.36597e-05
4.05166e-05
3.39562e-05
3.12027e-05
3.15741e-05
3.32632e-05
3.54732e-05
3.59849e-05
3.54423e-05
3.32627e-05
1.86028e-05
1.97356e-05
2.01001e-05
1.96856e-05
1.96823e-05
2.02709e-05
2.2158e-05
2.59747e-05
3.1725e-05
3.6982e-05
4.77908e-05
5.0201e-05
4.51113e-05
3.39198e-05
2.36388e-05
2.01535e-05
2.06653e-05
2.36782e-05
2.87336e-05
2.85647e-05
2.69058e-05
2.42176e-05
2.22362e-05
2.2639e-05
2.44099e-05
2.73111e-05
3.00038e-05
3.24081e-05
3.61788e-05
4.31254e-05
5.3026e-05
6.11525e-05
6.1526e-05
6.00799e-05
5.67364e-05
4.9938e-05
3.93955e-05
2.75761e-05
2.2517e-05
2.05119e-05
1.9538e-05
1.96006e-05
2.01411e-05
2.15412e-05
2.40457e-05
2.74537e-05
3.16781e-05
3.69024e-05
4.23808e-05
4.76112e-05
5.24595e-05
5.46249e-05
5.61309e-05
5.68964e-05
5.63216e-05
5.18309e-05
3.9341e-05
2.94912e-05
2.97429e-05
3.25517e-05
3.72092e-05
4.24071e-05
4.88414e-05
5.55154e-05
6.30531e-05
6.4523e-05
6.33501e-05
5.56968e-05
4.61608e-05
4.38546e-05
4.45461e-05
4.69317e-05
5.20674e-05
5.88232e-05
5.9712e-05
5.58842e-05
3.98059e-05
3.40629e-05
3.4714e-05
3.73725e-05
4.06958e-05
4.28148e-05
4.3277e-05
4.32582e-05
4.31705e-05
4.31329e-05
4.31927e-05
4.34378e-05
4.37391e-05
4.37099e-05
4.30435e-05
4.04902e-05
3.56571e-05
3.39087e-05
3.44355e-05
3.65186e-05
3.90975e-05
3.96327e-05
3.89346e-05
3.59708e-05
6.15236e-05
6.30696e-05
6.1926e-05
5.49424e-05
4.18618e-05
3.42053e-05
3.47212e-05
3.9223e-05
5.03535e-05
6.34002e-05
6.76839e-05
6.73125e-05
6.50498e-05
5.62348e-05
3.86423e-05
2.47999e-05
2.51536e-05
3.0114e-05
4.00661e-05
4.38027e-05
4.24474e-05
3.6985e-05
2.95945e-05
2.94576e-05
3.18401e-05
3.62796e-05
3.99486e-05
4.23683e-05
4.50185e-05
5.17238e-05
6.14141e-05
6.40301e-05
6.26422e-05
5.91122e-05
5.50811e-05
5.0638e-05
4.58357e-05
3.8497e-05
2.96379e-05
2.34412e-05
2.06671e-05
2.06252e-05
2.11906e-05
2.28017e-05
2.57474e-05
2.98361e-05
3.51007e-05
4.17121e-05
4.83561e-05
5.40052e-05
5.74794e-05
5.8635e-05
5.94392e-05
6.00713e-05
5.96562e-05
5.75706e-05
4.57326e-05
3.26169e-05
3.23628e-05
3.51857e-05
4.02387e-05
4.6003e-05
5.27398e-05
6.00782e-05
6.5045e-05
6.45114e-05
5.99459e-05
4.71149e-05
3.99451e-05
3.91143e-05
3.99194e-05
4.2532e-05
4.81871e-05
5.56377e-05
5.71755e-05
5.27088e-05
3.95124e-05
3.6396e-05
3.7496e-05
4.03877e-05
4.26544e-05
4.30325e-05
4.2944e-05
4.27183e-05
4.26187e-05
4.26439e-05
4.27275e-05
4.29373e-05
4.30493e-05
4.2939e-05
4.21432e-05
3.9519e-05
3.66041e-05
3.63512e-05
3.72881e-05
3.98586e-05
4.27238e-05
4.33593e-05
4.26387e-05
3.89073e-05
7.09906e-05
7.05718e-05
6.9577e-05
6.83309e-05
5.81352e-05
4.90064e-05
4.88284e-05
5.6098e-05
6.6757e-05
6.99162e-05
7.06517e-05
6.89858e-05
6.28649e-05
5.34561e-05
4.07078e-05
3.01311e-05
3.12397e-05
3.80439e-05
4.73629e-05
5.53633e-05
5.56187e-05
5.17616e-05
4.04357e-05
3.79766e-05
4.05371e-05
4.49717e-05
4.8151e-05
5.1273e-05
5.48582e-05
6.1209e-05
6.66598e-05
6.70715e-05
6.51396e-05
6.1363e-05
5.79334e-05
5.28657e-05
4.81515e-05
4.52272e-05
3.93159e-05
3.0141e-05
2.30224e-05
2.21119e-05
2.26939e-05
2.45366e-05
2.80969e-05
3.31856e-05
3.98102e-05
4.76215e-05
5.47013e-05
5.852e-05
5.86287e-05
5.88915e-05
5.90939e-05
5.98598e-05
5.97561e-05
5.81706e-05
4.72143e-05
3.48994e-05
3.48996e-05
3.82265e-05
4.38663e-05
4.99905e-05
5.62246e-05
6.40029e-05
6.57524e-05
6.42355e-05
5.50775e-05
4.19698e-05
3.65622e-05
3.6565e-05
3.75096e-05
4.00147e-05
4.52226e-05
5.27051e-05
5.35118e-05
4.83368e-05
3.93385e-05
3.85679e-05
4.01465e-05
4.23837e-05
4.29421e-05
4.28468e-05
4.26024e-05
4.24633e-05
4.24656e-05
4.25098e-05
4.25601e-05
4.25331e-05
4.23829e-05
4.18879e-05
4.05682e-05
3.86434e-05
3.82888e-05
3.8737e-05
4.04348e-05
4.28634e-05
4.50898e-05
4.56867e-05
4.50208e-05
4.1788e-05
7.09867e-05
7.11575e-05
7.11718e-05
7.01173e-05
6.88207e-05
6.645e-05
6.61084e-05
6.8704e-05
7.04804e-05
7.1591e-05
7.13376e-05
6.86037e-05
5.91304e-05
4.66166e-05
3.79861e-05
3.63541e-05
3.92679e-05
4.70812e-05
5.83608e-05
6.14496e-05
6.01671e-05
5.32379e-05
4.47443e-05
4.45338e-05
4.71102e-05
5.33535e-05
5.80552e-05
6.10723e-05
6.42852e-05
6.79588e-05
6.96134e-05
6.96822e-05
6.86485e-05
6.54873e-05
5.97782e-05
4.98678e-05
4.45997e-05
4.46994e-05
4.36577e-05
3.84904e-05
2.82917e-05
2.43164e-05
2.47897e-05
2.6791e-05
3.10256e-05
3.73152e-05
4.52027e-05
5.41555e-05
5.8616e-05
5.69761e-05
5.14717e-05
5.14401e-05
5.3585e-05
5.75725e-05
5.9066e-05
5.75273e-05
4.64632e-05
3.67321e-05
3.74521e-05
4.17705e-05
4.80324e-05
5.37449e-05
6.02046e-05
6.62652e-05
6.63742e-05
6.38822e-05
5.19956e-05
3.76116e-05
3.5e-05
3.52629e-05
3.65298e-05
3.90645e-05
4.38223e-05
4.98021e-05
4.95107e-05
4.41415e-05
3.98576e-05
4.0389e-05
4.21991e-05
4.3022e-05
4.29644e-05
4.26828e-05
4.25714e-05
4.25953e-05
4.26143e-05
4.25941e-05
4.25386e-05
4.23534e-05
4.18939e-05
4.10331e-05
4.00782e-05
3.98271e-05
4.03731e-05
4.17341e-05
4.33616e-05
4.4413e-05
4.54035e-05
4.61428e-05
4.58497e-05
4.36893e-05
7.09214e-05
7.09515e-05
7.10282e-05
7.11563e-05
7.11173e-05
7.06389e-05
7.04859e-05
7.11229e-05
7.12821e-05
7.14335e-05
7.14814e-05
6.98547e-05
6.26909e-05
4.85294e-05
4.30905e-05
4.35619e-05
4.92543e-05
5.98829e-05
6.40938e-05
6.21232e-05
5.74457e-05
5.26812e-05
4.895e-05
4.94437e-05
5.63097e-05
6.28669e-05
6.65253e-05
6.83125e-05
6.93271e-05
7.00973e-05
7.07507e-05
7.08649e-05
7.02193e-05
6.67215e-05
5.82159e-05
4.7002e-05
4.19977e-05
4.22073e-05
4.28703e-05
4.13106e-05
3.43421e-05
2.76225e-05
2.76635e-05
2.97209e-05
3.48535e-05
4.2575e-05
5.16109e-05
5.90435e-05
5.75677e-05
4.83896e-05
4.20261e-05
4.26187e-05
4.57581e-05
5.1859e-05
5.71099e-05
5.58892e-05
4.49683e-05
3.85312e-05
4.02275e-05
4.5722e-05
5.22128e-05
5.71787e-05
6.43324e-05
6.7764e-05
6.71591e-05
6.365e-05
5.02656e-05
3.59558e-05
3.42929e-05
3.47575e-05
3.63695e-05
3.93555e-05
4.39451e-05
4.70736e-05
4.56326e-05
4.13387e-05
4.08209e-05
4.21783e-05
4.33069e-05
4.32879e-05
4.32031e-05
4.32719e-05
4.35216e-05
4.37727e-05
4.37663e-05
4.36173e-05
4.3379e-05
4.31698e-05
4.29158e-05
4.24096e-05
4.20938e-05
4.23725e-05
4.36237e-05
4.45133e-05
4.45395e-05
4.45181e-05
4.46334e-05
4.50147e-05
4.53798e-05
4.43178e-05
7.09169e-05
7.09179e-05
7.09245e-05
7.09385e-05
7.09697e-05
7.10125e-05
7.10339e-05
7.09962e-05
7.10233e-05
7.10887e-05
7.11786e-05
7.07381e-05
6.8849e-05
6.17578e-05
5.59728e-05
5.73084e-05
6.35418e-05
6.81109e-05
6.8134e-05
6.45125e-05
5.78627e-05
5.36453e-05
5.43808e-05
5.9056e-05
6.61124e-05
6.89002e-05
6.96442e-05
6.9899e-05
6.99458e-05
7.01385e-05
7.02618e-05
7.07786e-05
7.09006e-05
6.75098e-05
5.68686e-05
4.58273e-05
4.11992e-05
4.11551e-05
4.20478e-05
4.15678e-05
3.80997e-05
3.14754e-05
3.10336e-05
3.3407e-05
3.98843e-05
4.85319e-05
5.81666e-05
5.95745e-05
4.97795e-05
3.76226e-05
3.49113e-05
3.61725e-05
3.97405e-05
4.67332e-05
5.39987e-05
5.29202e-05
4.31289e-05
4.04574e-05
4.34446e-05
4.99981e-05
5.58402e-05
6.19423e-05
6.75495e-05
6.89413e-05
6.79078e-05
6.36525e-05
4.99627e-05
3.57907e-05
3.40164e-05
3.45535e-05
3.65727e-05
4.0289e-05
4.38527e-05
4.41459e-05
4.20323e-05
4.08748e-05
4.2061e-05
4.37548e-05
4.42498e-05
4.43882e-05
4.46488e-05
4.5232e-05
4.60243e-05
4.64213e-05
4.64076e-05
4.61965e-05
4.5831e-05
4.5501e-05
4.53015e-05
4.5062e-05
4.4901e-05
4.48907e-05
4.49032e-05
4.46774e-05
4.47306e-05
4.50191e-05
4.49031e-05
4.47786e-05
4.49234e-05
4.45248e-05
7.09172e-05
7.09144e-05
7.0908e-05
7.08962e-05
7.08836e-05
7.08693e-05
7.08448e-05
7.07833e-05
7.06938e-05
7.05526e-05
7.04961e-05
7.06133e-05
6.99198e-05
6.90092e-05
6.8374e-05
6.85909e-05
6.90753e-05
7.00149e-05
6.9936e-05
6.88628e-05
6.57547e-05
6.32122e-05
6.46857e-05
6.8357e-05
6.90576e-05
6.94136e-05
6.923e-05
6.87277e-05
6.81252e-05
6.76136e-05
6.77814e-05
6.94123e-05
7.10835e-05
6.89782e-05
6.11922e-05
4.79192e-05
4.26225e-05
4.08941e-05
4.13745e-05
4.11686e-05
3.89524e-05
3.41479e-05
3.42341e-05
3.77967e-05
4.55917e-05
5.48861e-05
6.12159e-05
5.6628e-05
4.03274e-05
3.15791e-05
3.16077e-05
3.34892e-05
3.75658e-05
4.46743e-05
5.13506e-05
4.9204e-05
4.21342e-05
4.24116e-05
4.72532e-05
5.38814e-05
6.04144e-05
6.63473e-05
6.96094e-05
6.98575e-05
6.85872e-05
6.3944e-05
5.2591e-05
3.72855e-05
3.39688e-05
3.43278e-05
3.61468e-05
3.98401e-05
4.17307e-05
4.12657e-05
4.07059e-05
4.14653e-05
4.39821e-05
4.57401e-05
4.63738e-05
4.684e-05
4.75329e-05
4.85234e-05
4.94492e-05
4.97125e-05
4.96238e-05
4.92181e-05
4.85362e-05
4.76749e-05
4.67626e-05
4.60727e-05
4.54288e-05
4.44444e-05
4.4389e-05
4.54466e-05
4.72188e-05
4.90999e-05
4.91181e-05
4.71578e-05
4.53431e-05
4.48455e-05
7.09144e-05
7.0902e-05
7.08775e-05
7.08333e-05
7.07691e-05
7.06926e-05
7.059e-05
7.04278e-05
7.01963e-05
6.97863e-05
6.93675e-05
6.92515e-05
6.94348e-05
6.92832e-05
6.90191e-05
6.90722e-05
6.9336e-05
6.93105e-05
6.90952e-05
6.91612e-05
6.88001e-05
6.87527e-05
6.85524e-05
6.81586e-05
6.76492e-05
6.71483e-05
6.58525e-05
6.42609e-05
6.33019e-05
6.31379e-05
6.4009e-05
6.71185e-05
7.05118e-05
7.00564e-05
6.83783e-05
6.13943e-05
4.71279e-05
4.20681e-05
4.05531e-05
4.03679e-05
3.82783e-05
3.60631e-05
3.74529e-05
4.30105e-05
5.0708e-05
6.13754e-05
6.20908e-05
4.99463e-05
3.29855e-05
2.95527e-05
3.04245e-05
3.3398e-05
3.84242e-05
4.54856e-05
4.8945e-05
4.55382e-05
4.2312e-05
4.49274e-05
5.12922e-05
5.75882e-05
6.51319e-05
6.92981e-05
7.06625e-05
7.04865e-05
6.89053e-05
6.42357e-05
5.55288e-05
4.09167e-05
3.43559e-05
3.41313e-05
3.51381e-05
3.73352e-05
3.88645e-05
3.96988e-05
4.09239e-05
4.35211e-05
4.69509e-05
4.87313e-05
4.9557e-05
5.02217e-05
5.10563e-05
5.2018e-05
5.2595e-05
5.26084e-05
5.2461e-05
5.2031e-05
5.133e-05
4.98451e-05
4.73053e-05
4.50149e-05
4.46972e-05
4.5068e-05
4.6218e-05
4.82004e-05
5.2187e-05
5.4729e-05
5.48878e-05
4.97784e-05
4.57134e-05
4.54235e-05
7.08952e-05
7.08267e-05
7.07011e-05
7.05139e-05
7.02945e-05
7.00695e-05
6.98065e-05
6.94708e-05
6.89944e-05
6.82368e-05
6.74075e-05
6.69837e-05
6.71086e-05
6.74342e-05
6.75081e-05
6.73115e-05
6.67228e-05
6.59126e-05
6.5539e-05
6.57484e-05
6.60592e-05
6.60002e-05
6.52981e-05
6.44842e-05
6.34852e-05
6.21501e-05
5.95069e-05
5.74368e-05
5.72297e-05
5.79069e-05
5.9999e-05
6.40389e-05
6.83195e-05
6.88923e-05
6.90159e-05
6.87142e-05
6.14788e-05
4.64672e-05
4.10599e-05
3.93547e-05
3.79886e-05
3.81959e-05
4.1714e-05
4.82546e-05
5.89009e-05
6.43434e-05
6.17038e-05
4.38216e-05
2.98682e-05
2.90036e-05
3.01281e-05
3.38959e-05
4.01646e-05
4.60909e-05
4.6259e-05
4.30926e-05
4.36684e-05
4.81824e-05
5.47123e-05
6.28168e-05
6.87524e-05
7.07986e-05
7.1206e-05
7.0928e-05
6.90866e-05
6.44637e-05
5.78047e-05
4.63437e-05
3.68041e-05
3.47045e-05
3.50621e-05
3.65147e-05
3.84062e-05
4.02078e-05
4.28644e-05
4.68397e-05
5.04799e-05
5.21629e-05
5.29238e-05
5.34465e-05
5.39746e-05
5.45014e-05
5.64008e-05
5.73431e-05
5.7284e-05
5.65026e-05
5.45707e-05
5.25915e-05
4.97416e-05
4.7201e-05
4.69373e-05
4.74829e-05
4.97587e-05
5.46441e-05
6.03523e-05
6.03556e-05
5.76757e-05
4.94035e-05
4.59417e-05
4.61581e-05
7.07317e-05
7.03119e-05
6.96785e-05
6.8784e-05
6.80565e-05
6.76631e-05
6.73302e-05
6.67974e-05
6.59198e-05
6.44943e-05
6.31291e-05
6.2509e-05
6.26951e-05
6.30653e-05
6.31241e-05
6.27652e-05
6.18501e-05
6.07981e-05
6.01156e-05
6.01496e-05
6.04722e-05
6.04699e-05
6.01316e-05
5.93091e-05
5.7455e-05
5.46294e-05
5.1214e-05
5.04e-05
5.11783e-05
5.29603e-05
5.56936e-05
5.99173e-05
6.37956e-05
6.43329e-05
6.49678e-05
6.68582e-05
6.85135e-05
5.33376e-05
4.40084e-05
4.0348e-05
3.96017e-05
4.17201e-05
4.69844e-05
5.48367e-05
6.53367e-05
6.60727e-05
6.03501e-05
4.0631e-05
2.95301e-05
2.89382e-05
2.9977e-05
3.34775e-05
4.01982e-05
4.42826e-05
4.31417e-05
4.27814e-05
4.55823e-05
5.18432e-05
5.9657e-05
6.72966e-05
7.04923e-05
7.1458e-05
7.15224e-05
7.12308e-05
6.92217e-05
6.48141e-05
5.95376e-05
5.13153e-05
4.16812e-05
3.71487e-05
3.674e-05
3.75874e-05
3.95889e-05
4.25212e-05
4.63628e-05
5.073e-05
5.38586e-05
5.50938e-05
5.5562e-05
5.57791e-05
5.73405e-05
6.08277e-05
6.3972e-05
6.51059e-05
6.50999e-05
6.43326e-05
6.23513e-05
5.86132e-05
5.35951e-05
5.06479e-05
5.05519e-05
5.12922e-05
5.65116e-05
6.30984e-05
6.60839e-05
6.42195e-05
5.81955e-05
4.8742e-05
4.64274e-05
4.7185e-05
6.86664e-05
6.58487e-05
6.3641e-05
6.18533e-05
6.11995e-05
6.13534e-05
6.12371e-05
6.05482e-05
5.90519e-05
5.67981e-05
5.50181e-05
5.44976e-05
5.48845e-05
5.53939e-05
5.55231e-05
5.53063e-05
5.45571e-05
5.39743e-05
5.37982e-05
5.40707e-05
5.46291e-05
5.47435e-05
5.43081e-05
5.27286e-05
4.94582e-05
4.59667e-05
4.39552e-05
4.42721e-05
4.62032e-05
4.84924e-05
5.119e-05
5.46686e-05
5.72999e-05
5.68597e-05
5.72096e-05
5.97059e-05
6.5871e-05
6.53054e-05
4.75609e-05
4.37604e-05
4.37389e-05
4.67955e-05
5.25839e-05
6.29554e-05
6.88718e-05
6.78526e-05
5.96468e-05
4.05661e-05
3.16928e-05
3.05834e-05
3.09915e-05
3.2904e-05
3.73667e-05
4.01009e-05
4.11421e-05
4.341e-05
4.87163e-05
5.56989e-05
6.50116e-05
6.98264e-05
7.12591e-05
7.14701e-05
7.15535e-05
7.14184e-05
6.9299e-05
6.52187e-05
6.10342e-05
5.52309e-05
4.71637e-05
4.15951e-05
4.01927e-05
4.07604e-05
4.2986e-05
4.64717e-05
5.05655e-05
5.42921e-05
5.65259e-05
5.72247e-05
5.78552e-05
6.04815e-05
6.40214e-05
6.76078e-05
6.88972e-05
6.92023e-05
6.92513e-05
6.90512e-05
6.81066e-05
6.57049e-05
6.19351e-05
5.87391e-05
5.84736e-05
5.99058e-05
6.46343e-05
6.8667e-05
6.93774e-05
6.68758e-05
5.83647e-05
4.90721e-05
4.72458e-05
4.86468e-05
3.06549e-05
3.83396e-05
4.24329e-05
4.46672e-05
4.63297e-05
4.79821e-05
4.80138e-05
4.72129e-05
4.54197e-05
4.34566e-05
4.2745e-05
4.29872e-05
4.36535e-05
4.42896e-05
4.49318e-05
4.56183e-05
4.58991e-05
4.63217e-05
4.6802e-05
4.74025e-05
4.80044e-05
4.78654e-05
4.67424e-05
4.43728e-05
4.10864e-05
3.90093e-05
3.8658e-05
3.96685e-05
4.21716e-05
4.41655e-05
4.62135e-05
4.84004e-05
4.91755e-05
4.80992e-05
4.82193e-05
5.01756e-05
5.72412e-05
6.77102e-05
5.9492e-05
4.94506e-05
4.90433e-05
5.35271e-05
6.1607e-05
6.88969e-05
7.04458e-05
6.95523e-05
5.99802e-05
4.35615e-05
3.54143e-05
3.36667e-05
3.36288e-05
3.42572e-05
3.65362e-05
3.91943e-05
4.17815e-05
4.60664e-05
5.24351e-05
6.20897e-05
6.90843e-05
7.07576e-05
7.08341e-05
7.08644e-05
7.12164e-05
7.15113e-05
6.9433e-05
6.58697e-05
6.25574e-05
5.83316e-05
5.25997e-05
4.76554e-05
4.57399e-05
4.60092e-05
4.79871e-05
5.12398e-05
5.45074e-05
5.70732e-05
5.87757e-05
6.07327e-05
6.35664e-05
6.69584e-05
6.88204e-05
6.83805e-05
6.80623e-05
6.82064e-05
6.86152e-05
6.92429e-05
6.94772e-05
6.92243e-05
6.85364e-05
6.70218e-05
6.68148e-05
6.77225e-05
6.89994e-05
6.95734e-05
6.99529e-05
6.90976e-05
5.9217e-05
5.05391e-05
4.85233e-05
5.07627e-05
1.91316e-05
2.1504e-05
2.36879e-05
2.56451e-05
2.73725e-05
2.88664e-05
2.92209e-05
2.90986e-05
2.88999e-05
2.90654e-05
2.98053e-05
3.09036e-05
3.20802e-05
3.33046e-05
3.46044e-05
3.57108e-05
3.62866e-05
3.71487e-05
3.79332e-05
3.86379e-05
3.93631e-05
3.90902e-05
3.81196e-05
3.67778e-05
3.53773e-05
3.49118e-05
3.51732e-05
3.65113e-05
3.8715e-05
3.98286e-05
4.07172e-05
4.12419e-05
4.06304e-05
3.92679e-05
3.94205e-05
4.09898e-05
4.60846e-05
5.89784e-05
6.78589e-05
6.21858e-05
6.0543e-05
6.48764e-05
6.88311e-05
6.93528e-05
7.04576e-05
7.02334e-05
6.18918e-05
4.82022e-05
4.10947e-05
3.89388e-05
3.83616e-05
3.78039e-05
3.85828e-05
4.10684e-05
4.52563e-05
5.05565e-05
5.8961e-05
6.79419e-05
6.99482e-05
6.99531e-05
6.92941e-05
6.94851e-05
7.06751e-05
7.15334e-05
6.97108e-05
6.69965e-05
6.44715e-05
6.12849e-05
5.70168e-05
5.35043e-05
5.18563e-05
5.19158e-05
5.32558e-05
5.5503e-05
5.76724e-05
6.00619e-05
6.33433e-05
6.65473e-05
6.87279e-05
6.77278e-05
6.47645e-05
6.17401e-05
6.14357e-05
6.20464e-05
6.33601e-05
6.48136e-05
6.57791e-05
6.68287e-05
6.76123e-05
6.81578e-05
6.81473e-05
6.79094e-05
6.66701e-05
6.65772e-05
6.80783e-05
7.02677e-05
6.14335e-05
5.33516e-05
5.05532e-05
5.3593e-05
1.8202e-05
1.84585e-05
1.8776e-05
1.9145e-05
1.9579e-05
2.00399e-05
2.0438e-05
2.08005e-05
2.11352e-05
2.15401e-05
2.2111e-05
2.2788e-05
2.3502e-05
2.43697e-05
2.54665e-05
2.67694e-05
2.80938e-05
2.93466e-05
3.05486e-05
3.18415e-05
3.30801e-05
3.37471e-05
3.36829e-05
3.33733e-05
3.28987e-05
3.29004e-05
3.33153e-05
3.43381e-05
3.55979e-05
3.57137e-05
3.55172e-05
3.46873e-05
3.34979e-05
3.24889e-05
3.27408e-05
3.40677e-05
3.73598e-05
4.50098e-05
5.62919e-05
6.62038e-05
6.77839e-05
6.70722e-05
6.61314e-05
6.66309e-05
6.84247e-05
7.03294e-05
6.52617e-05
5.2713e-05
4.80592e-05
4.60447e-05
4.5095e-05
4.38012e-05
4.3878e-05
4.65553e-05
5.05668e-05
5.73444e-05
6.63731e-05
6.93082e-05
6.78941e-05
6.66736e-05
6.62978e-05
6.73245e-05
7.00695e-05
7.156e-05
7.02817e-05
6.86862e-05
6.70658e-05
6.47947e-05
6.13883e-05
5.82803e-05
5.68364e-05
5.67449e-05
5.76161e-05
5.93338e-05
6.19518e-05
6.54536e-05
6.85896e-05
6.76852e-05
6.29486e-05
5.55897e-05
5.13473e-05
5.06263e-05
5.11764e-05
5.29402e-05
5.45332e-05
5.55786e-05
5.61897e-05
5.70755e-05
5.81347e-05
5.97107e-05
5.98299e-05
5.93179e-05
5.87186e-05
5.97833e-05
6.34642e-05
7.00409e-05
6.49642e-05
5.62661e-05
5.33341e-05
5.65942e-05
1.81441e-05
1.81644e-05
1.81982e-05
1.82507e-05
1.83305e-05
1.84329e-05
1.85406e-05
1.86555e-05
1.87734e-05
1.89161e-05
1.91151e-05
1.9425e-05
1.98542e-05
2.04092e-05
2.15101e-05
2.33889e-05
2.58484e-05
2.86012e-05
3.10229e-05
3.29247e-05
3.36099e-05
3.35708e-05
3.29541e-05
3.2173e-05
3.20125e-05
3.21374e-05
3.24258e-05
3.29314e-05
3.32636e-05
3.30082e-05
3.22469e-05
3.09739e-05
2.98585e-05
2.95249e-05
2.97756e-05
3.06995e-05
3.28437e-05
3.7168e-05
4.33189e-05
5.11008e-05
5.56209e-05
5.71545e-05
5.917e-05
6.16643e-05
6.481e-05
6.9021e-05
6.88872e-05
5.98075e-05
5.45678e-05
5.26356e-05
5.18865e-05
5.05447e-05
5.03522e-05
5.33503e-05
5.92327e-05
6.60815e-05
6.86308e-05
6.44528e-05
6.14046e-05
6.11843e-05
6.22376e-05
6.54924e-05
6.96648e-05
7.15162e-05
7.09628e-05
7.02638e-05
6.96437e-05
6.87442e-05
6.66415e-05
6.40284e-05
6.24999e-05
6.23816e-05
6.32559e-05
6.50599e-05
6.78061e-05
6.82056e-05
6.23931e-05
5.10193e-05
4.34536e-05
4.08225e-05
4.05327e-05
4.09956e-05
4.25023e-05
4.45124e-05
4.53344e-05
4.55918e-05
4.56631e-05
4.58645e-05
4.62324e-05
4.70223e-05
4.76965e-05
4.85844e-05
4.99779e-05
5.31152e-05
5.82117e-05
6.74362e-05
6.86677e-05
5.92271e-05
5.65226e-05
6.02248e-05
1.81404e-05
1.8142e-05
1.81452e-05
1.81517e-05
1.81637e-05
1.81807e-05
1.81982e-05
1.8219e-05
1.82506e-05
1.83166e-05
1.84354e-05
1.87561e-05
1.97135e-05
2.14593e-05
2.40425e-05
2.71793e-05
3.04534e-05
3.33229e-05
3.54319e-05
3.57819e-05
3.51273e-05
3.36552e-05
3.22005e-05
3.17189e-05
3.17937e-05
3.19887e-05
3.22618e-05
3.25426e-05
3.25332e-05
3.22144e-05
3.1315e-05
2.99159e-05
2.88344e-05
2.87508e-05
2.89704e-05
2.96975e-05
3.15215e-05
3.46345e-05
3.86251e-05
4.32726e-05
4.69741e-05
5.01689e-05
5.35668e-05
5.69573e-05
6.04498e-05
6.53728e-05
6.98457e-05
6.72502e-05