/*--------------------------------*- C++ -*----------------------------------*\
| =========                 |                                                 |
| \\      /  F ield         | OpenFOAM: The Open Source CFD Toolbox           |
|  \\    /   O peration     | Version:  2.3.0                                 |
|   \\  /    A nd           | Web:      www.OpenFOAM.org                      |
|    \\/     M anipulation  |                                                 |
\*---------------------------------------------------------------------------*/
FoamFile
{
    version     2.0;
    format      ascii;
    class       volScalarField;
    location    "0.02";
    object      thermo:alpha;
}
// * * * * * * * * * * * * * * * * * * * * * * * * * * * * * * * * * * * * * //

dimensions      [1 -1 -1 0 0 0 0];

internalField   nonuniform List<scalar> 
5000
(
2.61542e-05
2.61542e-05
2.61542e-05
2.61542e-05
2.61542e-05
2.61542e-05
2.61542e-05
2.61542e-05
2.61542e-05
2.61542e-05
2.61542e-05
2.61542e-05
2.61542e-05
2.61542e-05
2.61542e-05
2.61542e-05
2.61542e-05
2.61542e-05
2.61542e-05
2.61542e-05
2.61542e-05
2.61542e-05
2.61542e-05
2.61542e-05
2.61542e-05
2.61542e-05
2.61542e-05
2.61542e-05
2.61542e-05
2.61542e-05
2.61542e-05
2.61542e-05
2.61542e-05
2.61542e-05
2.61542e-05
2.61542e-05
2.61542e-05
2.61542e-05
2.61542e-05
2.61542e-05
2.61543e-05
2.61547e-05
2.61561e-05
2.61598e-05
2.61673e-05
2.61786e-05
2.61963e-05
2.62211e-05
2.62494e-05
2.62803e-05
2.62848e-05
2.62633e-05
2.62378e-05
2.62138e-05
2.61955e-05
2.61874e-05
2.61949e-05
2.62221e-05
2.62899e-05
2.64419e-05
2.67139e-05
2.71025e-05
2.75927e-05
2.81666e-05
2.88067e-05
2.94847e-05
3.01409e-05
3.06308e-05
3.06559e-05
3.00139e-05
2.91432e-05
2.82985e-05
2.74717e-05
2.66179e-05
2.63839e-05
2.6393e-05
2.64458e-05
2.65332e-05
2.66454e-05
2.67771e-05
2.69196e-05
2.70602e-05
2.71818e-05
2.72309e-05
2.71394e-05
2.69568e-05
2.6764e-05
2.65974e-05
2.64627e-05
2.63678e-05
2.63079e-05
2.62867e-05
2.62977e-05
2.63303e-05
2.63924e-05
2.64851e-05
2.65537e-05
2.65812e-05
2.65986e-05
2.66273e-05
2.61542e-05
2.61542e-05
2.61542e-05
2.61542e-05
2.61542e-05
2.61542e-05
2.61542e-05
2.61542e-05
2.61542e-05
2.61542e-05
2.61542e-05
2.61542e-05
2.61542e-05
2.61542e-05
2.61542e-05
2.61542e-05
2.61542e-05
2.61542e-05
2.61542e-05
2.61542e-05
2.61542e-05
2.61542e-05
2.61542e-05
2.61542e-05
2.61542e-05
2.61542e-05
2.61542e-05
2.61542e-05
2.61542e-05
2.61542e-05
2.61542e-05
2.61542e-05
2.61542e-05
2.61542e-05
2.61542e-05
2.61542e-05
2.61542e-05
2.61542e-05
2.61542e-05
2.61544e-05
2.61551e-05
2.61577e-05
2.61666e-05
2.61925e-05
2.62513e-05
2.63689e-05
2.65801e-05
2.6924e-05
2.74676e-05
2.85144e-05
2.92953e-05
2.89004e-05
2.81823e-05
2.75266e-05
2.7053e-05
2.65947e-05
2.64067e-05
2.65094e-05
2.68994e-05
2.76752e-05
2.88215e-05
3.02744e-05
3.21055e-05
3.43423e-05
3.69078e-05
3.95602e-05
4.2067e-05
4.45348e-05
4.71768e-05
4.79449e-05
4.69926e-05
4.23782e-05
3.40986e-05
2.85347e-05
2.71276e-05
2.71485e-05
2.74555e-05
2.81394e-05
2.90303e-05
2.99857e-05
3.09118e-05
3.1796e-05
3.27764e-05
3.38296e-05
3.4181e-05
3.38956e-05
3.25625e-05
3.02964e-05
2.86955e-05
2.75711e-05
2.67392e-05
2.65551e-05
2.65834e-05
2.6714e-05
2.70357e-05
2.75538e-05
2.77924e-05
2.77562e-05
2.7573e-05
2.75638e-05
2.61542e-05
2.61542e-05
2.61542e-05
2.61542e-05
2.61542e-05
2.61542e-05
2.61542e-05
2.61542e-05
2.61542e-05
2.61542e-05
2.61542e-05
2.61542e-05
2.61542e-05
2.61542e-05
2.61542e-05
2.61542e-05
2.61542e-05
2.61542e-05
2.61542e-05
2.61542e-05
2.61542e-05
2.61542e-05
2.61542e-05
2.61542e-05
2.61542e-05
2.61542e-05
2.61542e-05
2.61542e-05
2.61542e-05
2.61542e-05
2.61542e-05
2.61542e-05
2.61542e-05
2.61542e-05
2.61542e-05
2.61542e-05
2.61542e-05
2.61543e-05
2.61544e-05
2.6155e-05
2.61572e-05
2.61651e-05
2.61915e-05
2.6273e-05
2.64638e-05
2.68597e-05
2.75703e-05
2.86768e-05
3.02521e-05
3.26425e-05
3.61516e-05
3.86681e-05
3.83226e-05
3.57267e-05
3.07708e-05
2.73689e-05
2.68477e-05
2.7171e-05
2.83179e-05
3.02384e-05
3.27065e-05
3.55202e-05
3.86805e-05
4.21354e-05
4.56881e-05
4.90574e-05
5.20215e-05
5.45003e-05
5.70149e-05
5.98502e-05
6.00749e-05
5.77314e-05
4.85123e-05
3.41858e-05
2.8986e-05
2.89027e-05
2.95614e-05
3.10161e-05
3.279e-05
3.44734e-05
3.58978e-05
3.70959e-05
3.82257e-05
3.94944e-05
4.10442e-05
4.21333e-05
4.20523e-05
4.0789e-05
3.66055e-05
3.07247e-05
2.77834e-05
2.72306e-05
2.72954e-05
2.76553e-05
2.84379e-05
2.9579e-05
3.04069e-05
3.04051e-05
2.99492e-05
2.96011e-05
2.61542e-05
2.61542e-05
2.61542e-05
2.61542e-05
2.61542e-05
2.61542e-05
2.61542e-05
2.61542e-05
2.61542e-05
2.61542e-05
2.61542e-05
2.61542e-05
2.61542e-05
2.61542e-05
2.61542e-05
2.61542e-05
2.61542e-05
2.61542e-05
2.61542e-05
2.61542e-05
2.61542e-05
2.61542e-05
2.61542e-05
2.61542e-05
2.61542e-05
2.61542e-05
2.61542e-05
2.61542e-05
2.61544e-05
2.61547e-05
2.61549e-05
2.61546e-05
2.61544e-05
2.61543e-05
2.61542e-05
2.61543e-05
2.61543e-05
2.61546e-05
2.61552e-05
2.61567e-05
2.6163e-05
2.61856e-05
2.62602e-05
2.64841e-05
2.69993e-05
2.79509e-05
2.93662e-05
3.12033e-05
3.33589e-05
3.59303e-05
3.91628e-05
4.3471e-05
4.60466e-05
4.49933e-05
3.88059e-05
2.9951e-05
2.78393e-05
2.83698e-05
3.02493e-05
3.32728e-05
3.67279e-05
4.02828e-05
4.40213e-05
4.78897e-05
5.17714e-05
5.54906e-05
5.90686e-05
6.20663e-05
6.48765e-05
6.79436e-05
6.87022e-05
6.75257e-05
6.21606e-05
4.83743e-05
3.32704e-05
3.10259e-05
3.14509e-05
3.29076e-05
3.49606e-05
3.69075e-05
3.85283e-05
3.98782e-05
4.10978e-05
4.23398e-05
4.37781e-05
4.56444e-05
4.7285e-05
4.72365e-05
4.54517e-05
3.94118e-05
3.13535e-05
2.8537e-05
2.85038e-05
2.89618e-05
3.00913e-05
3.1748e-05
3.32534e-05
3.34754e-05
3.30161e-05
3.2261e-05
2.61542e-05
2.61542e-05
2.61542e-05
2.61542e-05
2.61542e-05
2.61542e-05
2.61542e-05
2.61542e-05
2.61542e-05
2.61542e-05
2.61542e-05
2.61542e-05
2.61542e-05
2.61542e-05
2.61542e-05
2.61542e-05
2.61542e-05
2.61542e-05
2.61542e-05
2.61542e-05
2.61542e-05
2.61542e-05
2.61542e-05
2.61542e-05
2.61542e-05
2.61544e-05
2.61548e-05
2.61563e-05
2.61607e-05
2.61689e-05
2.61741e-05
2.61681e-05
2.61609e-05
2.61575e-05
2.61562e-05
2.61559e-05
2.61561e-05
2.61567e-05
2.61584e-05
2.61627e-05
2.61768e-05
2.62293e-05
2.64031e-05
2.68707e-05
2.78306e-05
2.93534e-05
3.14093e-05
3.38355e-05
3.63975e-05
3.91401e-05
4.21794e-05
4.59396e-05
5.04263e-05
5.07208e-05
4.62693e-05
3.45309e-05
2.93714e-05
2.97851e-05
3.20124e-05
3.56875e-05
3.97522e-05
4.37722e-05
4.78647e-05
5.21172e-05
5.66208e-05
6.15324e-05
6.64062e-05
6.98658e-05
7.32025e-05
7.84831e-05
8.05476e-05
7.94425e-05
7.43207e-05
6.29227e-05
4.37678e-05
3.35957e-05
3.32559e-05
3.42051e-05
3.62023e-05
3.8405e-05
4.03525e-05
4.20133e-05
4.35218e-05
4.50233e-05
4.66364e-05
4.85482e-05
5.10387e-05
5.24929e-05
5.20271e-05
4.86712e-05
3.97817e-05
3.17163e-05
3.04698e-05
3.08644e-05
3.2172e-05
3.42071e-05
3.62124e-05
3.6735e-05
3.6304e-05
3.51743e-05
2.61542e-05
2.61542e-05
2.61542e-05
2.61542e-05
2.61542e-05
2.61542e-05
2.61542e-05
2.61543e-05
2.61544e-05
2.61545e-05
2.61545e-05
2.61543e-05
2.61542e-05
2.61542e-05
2.61542e-05
2.61542e-05
2.61542e-05
2.61543e-05
2.61543e-05
2.61543e-05
2.61543e-05
2.61544e-05
2.61547e-05
2.61553e-05
2.61565e-05
2.61595e-05
2.61686e-05
2.61966e-05
2.62714e-05
2.6426e-05
2.65775e-05
2.64825e-05
2.63153e-05
2.62327e-05
2.61981e-05
2.61862e-05
2.61832e-05
2.61833e-05
2.61835e-05
2.61879e-05
2.62083e-05
2.6312e-05
2.6643e-05
2.74475e-05
2.89227e-05
3.10348e-05
3.36762e-05
3.66003e-05
3.95443e-05
4.2592e-05
4.58344e-05
4.94189e-05
5.41074e-05
5.55972e-05
5.24596e-05
4.00392e-05
3.13308e-05
3.13507e-05
3.35629e-05
3.76314e-05
4.21586e-05
4.65009e-05
5.0985e-05
5.59952e-05
6.20587e-05
6.8538e-05
7.40901e-05
7.99823e-05
8.53001e-05
8.86574e-05
8.96236e-05
8.91955e-05
8.6809e-05
7.69099e-05
5.84023e-05
3.9389e-05
3.52019e-05
3.56365e-05
3.73964e-05
3.99706e-05
4.25487e-05
4.48462e-05
4.69363e-05
4.89673e-05
5.09932e-05
5.30282e-05
5.53589e-05
5.76501e-05
5.78317e-05
5.63855e-05
5.01857e-05
3.88564e-05
3.35206e-05
3.35474e-05
3.46478e-05
3.67461e-05
3.90548e-05
3.99177e-05
3.95341e-05
3.81513e-05
2.61542e-05
2.61542e-05
2.61542e-05
2.61542e-05
2.61543e-05
2.61547e-05
2.6156e-05
2.61594e-05
2.61642e-05
2.61684e-05
2.6167e-05
2.61606e-05
2.61573e-05
2.61557e-05
2.6155e-05
2.61553e-05
2.61568e-05
2.61586e-05
2.61585e-05
2.61577e-05
2.61578e-05
2.61595e-05
2.61646e-05
2.61751e-05
2.61949e-05
2.62361e-05
2.6341e-05
2.66172e-05
2.72605e-05
2.90779e-05
3.24328e-05
3.23823e-05
2.95722e-05
2.77427e-05
2.69219e-05
2.66015e-05
2.64769e-05
2.64251e-05
2.637e-05
2.62939e-05
2.63019e-05
2.64585e-05
2.69692e-05
2.81331e-05
3.00777e-05
3.27528e-05
3.5965e-05
3.94797e-05
4.29828e-05
4.65773e-05
5.0418e-05
5.40901e-05
5.87034e-05
6.09822e-05
5.85876e-05
4.62649e-05
3.38898e-05
3.30597e-05
3.5071e-05
3.93662e-05
4.43146e-05
4.91206e-05
5.4322e-05
6.0832e-05
6.86643e-05
7.56033e-05
8.38935e-05
8.91638e-05
9.04647e-05
9.07214e-05
9.08335e-05
9.08561e-05
9.04214e-05
8.81371e-05
7.38338e-05
5.35802e-05
3.87884e-05
3.79231e-05
3.9246e-05
4.21502e-05
4.55302e-05
4.87111e-05
5.15634e-05
5.4063e-05
5.62506e-05
5.81379e-05
5.99625e-05
6.17006e-05
6.21088e-05
6.1518e-05
5.79667e-05
4.77156e-05
3.79406e-05
3.67555e-05
3.75494e-05
3.9618e-05
4.20884e-05
4.30821e-05
4.27007e-05
4.10899e-05
2.61542e-05
2.61544e-05
2.61547e-05
2.61556e-05
2.61591e-05
2.61715e-05
2.62069e-05
2.62912e-05
2.64103e-05
2.65385e-05
2.65752e-05
2.63906e-05
2.62747e-05
2.62132e-05
2.61854e-05
2.61848e-05
2.62116e-05
2.62523e-05
2.62574e-05
2.62383e-05
2.62302e-05
2.62468e-05
2.63087e-05
2.64336e-05
2.66301e-05
2.69423e-05
2.74461e-05
2.83901e-05
3.0587e-05
3.77885e-05
5.22964e-05
5.8835e-05
5.59829e-05
4.77242e-05
3.60028e-05
3.08428e-05
2.85848e-05
2.74028e-05
2.69683e-05
2.66229e-05
2.65504e-05
2.67195e-05
2.73652e-05
2.88219e-05
3.12356e-05
3.45017e-05
3.8394e-05
4.27818e-05
4.72246e-05
5.18682e-05
5.66657e-05
6.0502e-05
6.47209e-05
6.71909e-05
6.53437e-05
5.41899e-05
3.80143e-05
3.51597e-05
3.68289e-05
4.11727e-05
4.66263e-05
5.21615e-05
5.85267e-05
6.67515e-05
7.52539e-05
8.40879e-05
9.02906e-05
9.07603e-05
8.97863e-05
8.59804e-05
8.51247e-05
8.64858e-05
8.90632e-05
8.9021e-05
8.62252e-05
6.92261e-05
4.62248e-05
4.10503e-05
4.20375e-05
4.5103e-05
4.92514e-05
5.3195e-05
5.64138e-05
5.87834e-05
6.03367e-05
6.13452e-05
6.23156e-05
6.33559e-05
6.34785e-05
6.30196e-05
6.11996e-05
5.42381e-05
4.34112e-05
4.0409e-05
4.10417e-05
4.31969e-05
4.58897e-05
4.67271e-05
4.62077e-05
4.40968e-05
2.61626e-05
2.6178e-05
2.61837e-05
2.61913e-05
2.62435e-05
2.64159e-05
2.68805e-05
2.79292e-05
2.94587e-05
3.16854e-05
3.47037e-05
3.2534e-05
2.95153e-05
2.78074e-05
2.70004e-05
2.67357e-05
2.69692e-05
2.76732e-05
2.80247e-05
2.76826e-05
2.74014e-05
2.72656e-05
2.74043e-05
2.78354e-05
2.87636e-05
3.02054e-05
3.18788e-05
3.40815e-05
3.87941e-05
4.94966e-05
6.46348e-05
7.73921e-05
7.82145e-05
7.62445e-05
6.78238e-05
5.33815e-05
3.48169e-05
3.01267e-05
2.87167e-05
2.7632e-05
2.71063e-05
2.72569e-05
2.7995e-05
2.97083e-05
3.26488e-05
3.66084e-05
4.13969e-05
4.7006e-05
5.28677e-05
5.88884e-05
6.48178e-05
6.84522e-05
7.19102e-05
7.39304e-05
7.25319e-05
6.35496e-05
4.55401e-05
3.81068e-05
3.92513e-05
4.34363e-05
4.94087e-05
5.57344e-05
6.34559e-05
7.28928e-05
8.23119e-05
9.03608e-05
9.0712e-05
8.87393e-05
8.04242e-05
7.11936e-05
7.11258e-05
7.36582e-05
8.14898e-05
8.72063e-05
8.66649e-05
8.00488e-05
5.45262e-05
4.49347e-05
4.55948e-05
4.88323e-05
5.35094e-05
5.75948e-05
6.00084e-05
6.1128e-05
6.16913e-05
6.20345e-05
6.23978e-05
6.29468e-05
6.31589e-05
6.28887e-05
6.17585e-05
5.74116e-05
4.83374e-05
4.45194e-05
4.50352e-05
4.73777e-05
5.04366e-05
5.11443e-05
5.03938e-05
4.7377e-05
2.68143e-05
2.84269e-05
2.8945e-05
2.83558e-05
2.83512e-05
2.91875e-05
3.18609e-05
3.72309e-05
4.52447e-05
5.25248e-05
6.74895e-05
7.08501e-05
6.37654e-05
4.82871e-05
3.39497e-05
2.90208e-05
2.97474e-05
3.40053e-05
4.1085e-05
4.08495e-05
3.85339e-05
3.47643e-05
3.19713e-05
3.25402e-05
3.50347e-05
3.91004e-05
4.28531e-05
4.61923e-05
5.14129e-05
6.10202e-05
7.48111e-05
8.63309e-05
8.68852e-05
8.48228e-05
8.00493e-05
7.04908e-05
5.58616e-05
3.94705e-05
3.2368e-05
2.95296e-05
2.8146e-05
2.8235e-05
2.90032e-05
3.09885e-05
3.45226e-05
3.92998e-05
4.51795e-05
5.24135e-05
5.99889e-05
6.72461e-05
7.40209e-05
7.70669e-05
7.91932e-05
8.02782e-05
7.94634e-05
7.31399e-05
5.57865e-05
4.214e-05
4.24903e-05
4.63917e-05
5.2838e-05
6.00252e-05
6.89602e-05
7.83233e-05
8.90541e-05
9.11851e-05
8.95003e-05
7.85669e-05
6.52291e-05
6.20289e-05
6.29866e-05
6.63006e-05
7.34738e-05
8.30215e-05
8.42951e-05
7.88435e-05
5.64293e-05
4.84852e-05
4.93863e-05
5.30639e-05
5.76594e-05
6.05893e-05
6.12289e-05
6.12028e-05
6.10815e-05
6.10295e-05
6.11122e-05
6.14515e-05
6.18685e-05
6.18281e-05
6.09057e-05
5.73752e-05
5.0691e-05
4.82716e-05
4.90009e-05
5.18826e-05
5.545e-05
5.619e-05
5.52246e-05
5.11248e-05
8.68111e-05
8.90194e-05
8.73805e-05
7.74893e-05
5.92714e-05
4.86818e-05
4.93961e-05
5.56234e-05
7.1063e-05
8.94819e-05
9.56166e-05
9.50966e-05
9.18708e-05
7.93211e-05
5.48203e-05
3.55827e-05
3.60794e-05
4.30064e-05
5.67884e-05
6.19582e-05
6.00824e-05
5.25286e-05
4.22837e-05
4.20932e-05
4.54041e-05
5.15522e-05
5.66258e-05
5.99723e-05
6.36422e-05
7.29856e-05
8.66729e-05
9.04418e-05
8.84726e-05
8.34359e-05
7.77096e-05
7.14682e-05
6.47757e-05
5.46194e-05
4.23441e-05
3.36714e-05
2.97498e-05
2.96905e-05
3.0492e-05
3.27699e-05
3.69122e-05
4.26199e-05
4.99212e-05
5.90641e-05
6.82839e-05
7.61943e-05
8.11042e-05
8.27515e-05
8.39052e-05
8.48116e-05
8.42163e-05
8.1234e-05
6.46324e-05
4.64821e-05
4.61296e-05
5.00389e-05
5.70275e-05
6.50081e-05
7.44161e-05
8.47858e-05
9.19162e-05
9.11677e-05
8.46053e-05
6.65563e-05
5.66214e-05
5.5473e-05
5.6586e-05
6.01981e-05
6.80483e-05
7.8497e-05
8.06755e-05
7.43695e-05
5.60238e-05
5.17129e-05
5.32347e-05
5.72334e-05
6.03673e-05
6.08905e-05
6.0768e-05
6.04558e-05
6.0318e-05
6.03528e-05
6.04685e-05
6.07588e-05
6.09138e-05
6.07612e-05
5.96603e-05
5.60328e-05
5.20009e-05
5.1651e-05
5.29472e-05
5.65021e-05
6.04634e-05
6.13428e-05
6.03457e-05
5.51869e-05
0.000100217
9.96374e-05
9.82643e-05
9.65409e-05
8.19927e-05
6.9184e-05
6.89358e-05
7.91171e-05
9.42989e-05
9.87321e-05
9.97485e-05
9.74584e-05
8.87556e-05
7.54152e-05
5.76756e-05
4.30302e-05
4.45708e-05
5.39931e-05
6.6901e-05
7.81009e-05
7.84689e-05
7.30441e-05
5.72996e-05
5.38997e-05
5.74394e-05
6.35771e-05
6.79985e-05
7.23551e-05
7.73804e-05
8.63667e-05
9.41665e-05
9.4756e-05
9.20089e-05
8.66135e-05
8.17542e-05
7.45878e-05
6.79981e-05
6.393e-05
5.57518e-05
4.30439e-05
3.30811e-05
3.17957e-05
3.26178e-05
3.52128e-05
4.01974e-05
4.72702e-05
5.64352e-05
6.72606e-05
7.71746e-05
8.25846e-05
8.27407e-05
8.31183e-05
8.34102e-05
8.45081e-05
8.43594e-05
8.20872e-05
6.6693e-05
4.96428e-05
4.9643e-05
5.42452e-05
6.20447e-05
7.0564e-05
7.9326e-05
9.04042e-05
9.29253e-05
9.07714e-05
7.77055e-05
5.94204e-05
5.19429e-05
5.19468e-05
5.32534e-05
5.67179e-05
6.39236e-05
7.43635e-05
7.54995e-05
6.82567e-05
5.57832e-05
5.47175e-05
5.69001e-05
5.99929e-05
6.07654e-05
6.06335e-05
6.02955e-05
6.0103e-05
6.01062e-05
6.01672e-05
6.02369e-05
6.01995e-05
5.99918e-05
5.93073e-05
5.74829e-05
5.48218e-05
5.43313e-05
5.49513e-05
5.72985e-05
6.06565e-05
6.37392e-05
6.45684e-05
6.36436e-05
5.91692e-05
0.000100219
0.000100452
0.000100467
9.90113e-05
9.72265e-05
9.38603e-05
9.33695e-05
9.70655e-05
9.95099e-05
0.000101037
0.000100688
9.69188e-05
8.34259e-05
6.58622e-05
5.39126e-05
5.16553e-05
5.5685e-05
6.65071e-05
8.23302e-05
8.67764e-05
8.49461e-05
7.51135e-05
6.32608e-05
6.29696e-05
6.65498e-05
7.52686e-05
8.18903e-05
8.61681e-05
9.07603e-05
9.60055e-05
9.83224e-05
9.84185e-05
9.69802e-05
9.25144e-05
8.43794e-05
7.03926e-05
6.30604e-05
6.31984e-05
6.17559e-05
5.46103e-05
4.0469e-05
3.49033e-05
3.55684e-05
3.83735e-05
4.42735e-05
5.29847e-05
6.38964e-05
7.64063e-05
8.27218e-05
8.03893e-05
7.26382e-05
7.25939e-05
7.56043e-05
8.12395e-05
8.33696e-05
8.11709e-05
6.5648e-05
5.2178e-05
5.31739e-05
5.9145e-05
6.78326e-05
7.5829e-05
8.49621e-05
9.36369e-05
9.38041e-05
9.02593e-05
7.33712e-05
5.33946e-05
4.9782e-05
5.01457e-05
5.1898e-05
5.54041e-05
6.19837e-05
7.03005e-05
6.98939e-05
6.24257e-05
5.65009e-05
5.72353e-05
5.97377e-05
6.0876e-05
6.07963e-05
6.04066e-05
6.02525e-05
6.02856e-05
6.03119e-05
6.0284e-05
6.02072e-05
5.9951e-05
5.93157e-05
5.81256e-05
5.68057e-05
5.64587e-05
5.72133e-05
5.90947e-05
6.1346e-05
6.28016e-05
6.41748e-05
6.52023e-05
6.47949e-05
6.17996e-05
0.00010013
0.000100171
0.000100275
0.00010045
0.000100392
9.97314e-05
9.95204e-05
0.000100399
0.000100619
0.000100825
0.000100887
9.86517e-05
8.84779e-05
6.85241e-05
6.09724e-05
6.16248e-05
6.95318e-05
8.44753e-05
9.05103e-05
8.7724e-05
8.10597e-05
7.4329e-05
6.91131e-05
6.98008e-05
7.94202e-05
8.87286e-05
9.39648e-05
9.65072e-05
9.79242e-05
9.89817e-05
9.98815e-05
0.000100039
9.91592e-05
9.4271e-05
8.21503e-05
6.63977e-05
5.94591e-05
5.97489e-05
6.06661e-05
5.85092e-05
4.88715e-05
3.95354e-05
3.95927e-05
4.24596e-05
4.95793e-05
6.02578e-05
7.28334e-05
8.3337e-05
8.12302e-05
6.83314e-05
5.94986e-05
6.03183e-05
6.46683e-05
7.31793e-05
8.05796e-05
7.88492e-05
6.35709e-05
5.46667e-05
5.7012e-05
6.46176e-05
7.36761e-05
8.06701e-05
9.08561e-05
9.57536e-05
9.49088e-05
8.99218e-05
7.09486e-05
5.11041e-05
4.88035e-05
4.94464e-05
5.16763e-05
5.58066e-05
6.21537e-05
6.64972e-05
6.44933e-05
5.8548e-05
5.78322e-05
5.97088e-05
6.12703e-05
6.1244e-05
6.11266e-05
6.12219e-05
6.15675e-05
6.19151e-05
6.19062e-05
6.16999e-05
6.137e-05
6.10805e-05
6.07291e-05
6.00288e-05
5.9592e-05
5.99774e-05
6.17088e-05
6.29406e-05
6.29768e-05
6.29473e-05
6.3107e-05
6.36353e-05
6.41419e-05
6.26697e-05
0.000100124
0.000100125
0.000100134
0.000100153
0.000100196
0.000100254
0.000100283
0.000100231
0.000100269
0.000100358
0.000100477
9.98644e-05
9.72654e-05
8.71414e-05
7.89416e-05
8.08267e-05
8.96912e-05
9.62224e-05
9.62552e-05
9.11018e-05
8.16251e-05
7.568e-05
7.67102e-05
8.33017e-05
9.33748e-05
9.73339e-05
9.83578e-05
9.87102e-05
9.87788e-05
9.90488e-05
9.92204e-05
9.99258e-05
0.000100089
9.5377e-05
8.02283e-05
6.47641e-05
5.83551e-05
5.82942e-05
5.95284e-05
5.88647e-05
5.40697e-05
4.48981e-05
4.42845e-05
4.75769e-05
5.65375e-05
6.85298e-05
8.20855e-05
8.40988e-05
7.02707e-05
5.34103e-05
4.96592e-05
5.14038e-05
5.63388e-05
6.60238e-05
7.6183e-05
7.46648e-05
6.10239e-05
5.73299e-05
6.14609e-05
7.05747e-05
7.8781e-05
8.7435e-05
9.54369e-05
9.73982e-05
9.59579e-05
8.99223e-05
7.05255e-05
5.08758e-05
4.84208e-05
4.91642e-05
5.19573e-05
5.7097e-05
6.20259e-05
6.24318e-05
5.9507e-05
5.79068e-05
5.95467e-05
6.18902e-05
6.25756e-05
6.27673e-05
6.31284e-05
6.39367e-05
6.50377e-05
6.55897e-05
6.55707e-05
6.52771e-05
6.4769e-05
6.43103e-05
6.40331e-05
6.37007e-05
6.34777e-05
6.34634e-05
6.34807e-05
6.31679e-05
6.32417e-05
6.36413e-05
6.34806e-05
6.33081e-05
6.35087e-05
6.29565e-05
0.000100124
0.00010012
0.000100112
0.000100095
0.000100078
0.000100059
0.000100025
9.9941e-05
9.98187e-05
9.96255e-05
9.95477e-05
9.97051e-05
9.87418e-05
9.7485e-05
9.66014e-05
9.69068e-05
9.75746e-05
9.88675e-05
9.87591e-05
9.72823e-05
9.28599e-05
8.9221e-05
9.13283e-05
9.65745e-05
9.7552e-05
9.8051e-05
9.78065e-05
9.71222e-05
9.62993e-05
9.55997e-05
9.58302e-05
9.80629e-05
0.000100341
9.74405e-05
8.63423e-05
6.76741e-05
6.03232e-05
5.79334e-05
5.85974e-05
5.83128e-05
5.52492e-05
4.86028e-05
4.87222e-05
5.36508e-05
6.44373e-05
7.74284e-05
8.64488e-05
7.98993e-05
5.71495e-05
4.5042e-05
4.50817e-05
4.76907e-05
5.33312e-05
6.31636e-05
7.24646e-05
6.94657e-05
5.96479e-05
6.00314e-05
6.67474e-05
7.60208e-05
8.52545e-05
9.37237e-05
9.83223e-05
9.86676e-05
9.69054e-05
9.03399e-05
7.4207e-05
5.29434e-05
4.83548e-05
4.88518e-05
5.13682e-05
5.64765e-05
5.909e-05
5.8447e-05
5.76733e-05
5.87231e-05
6.2205e-05
6.46427e-05
6.55237e-05
6.61722e-05
6.71366e-05
6.85168e-05
6.98082e-05
7.01759e-05
7.0052e-05
6.94858e-05
6.85346e-05
6.73343e-05
6.60644e-05
6.51049e-05
6.42099e-05
6.28452e-05
6.27684e-05
6.42348e-05
6.67e-05
6.93219e-05
6.93465e-05
6.66144e-05
6.4091e-05
6.34008e-05
0.00010012
0.000100103
0.00010007
0.000100009
9.99217e-05
9.98171e-05
9.96769e-05
9.94551e-05
9.91386e-05
9.85778e-05
9.80048e-05
9.78455e-05
9.80941e-05
9.78798e-05
9.7512e-05
9.75855e-05
9.7952e-05
9.79194e-05
9.76219e-05
9.77031e-05
9.71965e-05
9.71308e-05
9.68586e-05
9.63333e-05
9.56456e-05
9.49617e-05
9.31858e-05
9.10009e-05
8.96836e-05
8.94585e-05
9.06554e-05
9.49224e-05
9.9562e-05
9.89256e-05
9.66001e-05
8.66229e-05
6.65718e-05
5.95564e-05
5.74621e-05
5.7206e-05
5.43167e-05
5.12526e-05
5.31752e-05
6.08604e-05
7.15671e-05
8.66434e-05
8.77087e-05
7.05037e-05
4.69928e-05
4.22256e-05
4.34382e-05
4.75644e-05
5.45186e-05
6.42889e-05
6.91043e-05
6.4362e-05
5.98937e-05
6.35143e-05
7.23844e-05
8.12409e-05
9.19904e-05
9.78869e-05
9.97704e-05
9.95306e-05
9.73481e-05
9.07585e-05
7.83435e-05
5.79645e-05
4.88908e-05
4.85799e-05
4.9973e-05
5.30122e-05
5.51277e-05
5.62814e-05
5.79746e-05
6.15668e-05
6.63266e-05
6.88065e-05
6.99584e-05
7.08868e-05
7.20539e-05
7.34017e-05
7.42139e-05
7.4233e-05
7.40262e-05
7.34227e-05
7.24383e-05
7.03613e-05
6.68198e-05
6.36355e-05
6.31953e-05
6.37091e-05
6.53071e-05
6.80679e-05
7.36367e-05
7.72129e-05
7.74381e-05
7.02672e-05
6.46055e-05
6.42026e-05
0.000100094
0.000100001
9.98288e-05
9.95728e-05
9.92728e-05
9.8965e-05
9.86052e-05
9.8146e-05
9.74937e-05
9.64556e-05
9.53192e-05
9.47385e-05
9.49093e-05
9.5355e-05
9.54558e-05
9.51864e-05
9.43798e-05
9.32689e-05
9.27561e-05
9.30424e-05
9.34662e-05
9.33844e-05
9.24231e-05
9.13077e-05
8.99356e-05
8.81001e-05
8.44601e-05
8.16038e-05
8.13178e-05
8.22528e-05
8.51386e-05
9.06964e-05
9.65665e-05
9.73425e-05
9.75016e-05
9.70779e-05
8.67424e-05
6.56549e-05
5.81626e-05
5.58056e-05
5.39161e-05
5.42029e-05
5.90667e-05
6.81435e-05
8.3096e-05
9.09067e-05
8.71377e-05
6.19833e-05
4.26645e-05
4.14612e-05
4.30261e-05
4.8254e-05
5.69251e-05
6.51302e-05
6.53639e-05
6.09737e-05
6.17707e-05
6.80416e-05
7.71886e-05
8.86807e-05
9.71244e-05
9.99527e-05
0.000100513
0.000100134
9.76002e-05
9.1085e-05
8.1572e-05
6.54822e-05
5.22775e-05
4.93731e-05
4.98679e-05
5.18771e-05
5.44937e-05
5.69848e-05
6.0658e-05
6.61719e-05
7.12475e-05
7.3603e-05
7.46716e-05
7.54084e-05
7.61528e-05
7.68903e-05
7.95597e-05
8.08895e-05
8.08059e-05
7.97028e-05
7.69825e-05
7.42088e-05
7.02176e-05
6.6675e-05
6.63079e-05
6.70677e-05
7.02424e-05
7.70831e-05
8.51617e-05
8.51822e-05
8.13841e-05
6.97438e-05
6.49228e-05
6.52236e-05
9.98706e-05
9.92965e-05
9.84298e-05
9.72046e-05
9.62076e-05
9.56688e-05
9.52126e-05
9.44827e-05
9.32791e-05
9.1322e-05
8.94465e-05
8.85942e-05
8.88501e-05
8.93589e-05
8.94397e-05
8.89464e-05
8.76879e-05
8.62398e-05
8.52995e-05
8.53463e-05
8.57908e-05
8.57876e-05
8.53215e-05
8.41876e-05
8.1629e-05
7.77233e-05
7.29916e-05
7.1862e-05
7.2942e-05
7.54124e-05
7.9195e-05
8.50259e-05
9.03618e-05
9.10993e-05
9.19694e-05
9.45559e-05
9.68018e-05
7.52391e-05
6.22415e-05
5.71786e-05
5.61471e-05
5.90751e-05
6.63742e-05
7.73525e-05
9.22797e-05
9.33633e-05
8.51876e-05
5.75695e-05
4.21941e-05
4.137e-05
4.28159e-05
4.76745e-05
5.69715e-05
6.26211e-05
6.10416e-05
6.05431e-05
6.44234e-05
7.31589e-05
8.41738e-05
9.50692e-05
9.95287e-05
0.000100856
0.000100945
0.000100547
9.77874e-05
9.15847e-05
8.40432e-05
7.24169e-05
5.90214e-05
5.27543e-05
5.21888e-05
5.33611e-05
5.61294e-05
6.0183e-05
6.55085e-05
7.15973e-05
7.59872e-05
7.77287e-05
7.8391e-05
7.86961e-05
8.08883e-05
8.58312e-05
9.03105e-05
9.19318e-05
9.1924e-05
9.08305e-05
8.80032e-05
8.26881e-05
7.56108e-05
7.1485e-05
7.1351e-05
7.2384e-05
7.97123e-05
8.90661e-05
9.33423e-05
9.07063e-05
8.21254e-05
6.88212e-05
6.55981e-05
6.66521e-05
9.70427e-05
9.31788e-05
9.0148e-05
8.7691e-05
8.67917e-05
8.70037e-05
8.68437e-05
8.58951e-05
8.38328e-05
8.07218e-05
7.82611e-05
7.7541e-05
7.80762e-05
7.87809e-05
7.89595e-05
7.86597e-05
7.76233e-05
7.68166e-05
7.65728e-05
7.695e-05
7.77229e-05
7.78812e-05
7.72786e-05
7.50915e-05
7.0554e-05
6.56961e-05
6.28931e-05
6.33345e-05
6.60256e-05
6.92117e-05
7.29582e-05
7.77775e-05
8.14147e-05
8.08068e-05
8.129e-05
8.4734e-05
9.32022e-05
9.22142e-05
6.71763e-05
6.18983e-05
6.18686e-05
6.61114e-05
7.41904e-05
8.88558e-05
9.72916e-05
9.58692e-05
8.41785e-05
5.74798e-05
4.51999e-05
4.36591e-05
4.4226e-05
4.688e-05
5.30558e-05
5.68371e-05
5.82762e-05
6.1413e-05
6.8786e-05
7.85703e-05
9.18118e-05
9.86131e-05
0.000100583
0.000100874
0.000100988
0.000100803
9.78944e-05
9.21605e-05
8.6181e-05
7.79229e-05
6.66232e-05
5.89023e-05
5.69638e-05
5.77485e-05
6.08262e-05
6.56601e-05
7.13675e-05
7.65986e-05
7.97549e-05
8.07458e-05
8.16213e-05
8.53437e-05
9.03813e-05
9.55045e-05
9.73269e-05
9.77499e-05
9.78174e-05
9.75398e-05
9.62117e-05
9.27897e-05
8.74007e-05
8.28611e-05
8.24851e-05
8.45152e-05
9.12573e-05
9.70029e-05
9.79934e-05
9.44834e-05
8.23697e-05
6.92815e-05
6.67368e-05
6.86884e-05
4.42201e-05
5.50587e-05
6.07731e-05
6.3885e-05
6.62018e-05
6.85021e-05
6.85462e-05
6.74318e-05
6.49336e-05
6.21989e-05
6.12077e-05
6.15452e-05
6.2473e-05
6.3359e-05
6.42535e-05
6.52105e-05
6.56019e-05
6.61906e-05
6.68597e-05
6.76956e-05
6.85331e-05
6.83398e-05
6.67766e-05
6.34748e-05
5.88962e-05
5.59957e-05
5.55043e-05
5.69172e-05
6.04089e-05
6.3186e-05
6.60399e-05
6.90838e-05
7.01613e-05
6.86649e-05
6.88319e-05
7.15504e-05
8.13336e-05
9.57051e-05
8.3917e-05
6.98089e-05
6.92419e-05
7.55109e-05
8.69286e-05
9.73287e-05
9.94634e-05
9.82416e-05
8.4644e-05
6.16228e-05
5.03551e-05
4.79367e-05
4.78841e-05
4.87541e-05
5.19069e-05
5.55837e-05
5.91602e-05
6.50965e-05
7.39876e-05
8.76332e-05
9.75882e-05
9.9893e-05
0.000100005
0.000100047
0.000100528
0.00010093
9.80803e-05
9.30839e-05
8.8358e-05
8.23202e-05
7.42199e-05
6.73079e-05
6.46427e-05
6.5017e-05
6.77696e-05
7.23109e-05
7.69025e-05
8.05319e-05
8.29387e-05
8.57066e-05
8.97373e-05
9.45808e-05
9.72229e-05
9.66292e-05
9.6203e-05
9.64018e-05
9.69608e-05
9.78163e-05
9.81315e-05
9.77807e-05
9.68225e-05
9.4672e-05
9.43758e-05
9.56684e-05
9.74706e-05
9.82664e-05
9.87873e-05
9.76069e-05
8.35811e-05
7.13298e-05
6.85163e-05
7.16423e-05
2.77058e-05
3.11238e-05
3.42636e-05
3.70709e-05
3.95424e-05
4.16747e-05
4.21798e-05
4.20055e-05
4.17223e-05
4.19582e-05
4.30119e-05
4.45734e-05
4.62427e-05
4.79758e-05
4.9811e-05
5.13693e-05
5.2179e-05
5.33895e-05
5.44895e-05
5.54762e-05
5.64904e-05
5.61088e-05
5.47505e-05
5.2869e-05
5.08999e-05
5.02442e-05
5.06126e-05
5.24947e-05
5.55841e-05
5.71408e-05
5.83812e-05
5.91131e-05
5.82601e-05
5.63573e-05
5.65706e-05
5.87616e-05
6.58603e-05
8.37302e-05
9.59033e-05
8.77513e-05
8.54108e-05
9.15999e-05
9.72387e-05
9.79686e-05
9.9486e-05
9.91717e-05
8.73633e-05
6.80699e-05
5.82106e-05
5.52305e-05
5.44322e-05
5.36607e-05
5.47381e-05
5.81743e-05
6.39707e-05
7.13575e-05
8.31806e-05
9.59811e-05
9.87797e-05
9.88006e-05
9.7902e-05
9.81637e-05
9.97907e-05
0.00010096
9.84643e-05
9.46724e-05
9.10828e-05
8.65216e-05
8.04491e-05
7.54911e-05
7.31766e-05
7.32598e-05
7.51417e-05
7.83077e-05
8.13785e-05
8.47552e-05
8.94267e-05
9.39931e-05
9.70935e-05
9.57346e-05
9.16868e-05
8.75341e-05
8.71161e-05
8.79565e-05
8.97627e-05
9.17584e-05
9.30812e-05
9.4517e-05
9.55849e-05
9.63234e-05
9.6308e-05
9.59877e-05
9.43006e-05
9.41774e-05
9.62348e-05
9.92177e-05
8.6726e-05
7.52706e-05
7.13495e-05
7.56124e-05
2.63647e-05
2.67349e-05
2.71929e-05
2.77251e-05
2.83508e-05
2.90152e-05
2.95888e-05
3.0111e-05
3.05929e-05
3.11757e-05
3.19972e-05
3.29707e-05
3.39967e-05
3.52424e-05
3.68151e-05
3.86803e-05
4.05725e-05
4.23588e-05
4.40691e-05
4.59043e-05
4.76584e-05
4.86011e-05
4.85104e-05
4.80729e-05
4.74017e-05
4.74042e-05
4.79909e-05
4.94354e-05
5.12104e-05
5.13733e-05
5.10969e-05
4.99278e-05
4.8249e-05
4.68216e-05
4.71784e-05
4.90538e-05
5.36856e-05
6.43622e-05
8.00223e-05
9.36478e-05
9.58055e-05
9.48396e-05
9.35632e-05
9.42531e-05
9.67112e-05
9.93045e-05
9.21728e-05
7.43773e-05
6.78708e-05
6.50667e-05
6.37471e-05
6.19547e-05
6.20611e-05
6.57769e-05
7.13719e-05
8.08894e-05
9.37479e-05
9.79001e-05
9.59817e-05
9.43121e-05
9.37976e-05
9.52052e-05
9.89634e-05
0.000100997
9.92482e-05
9.70375e-05
9.47534e-05
9.15152e-05
8.66457e-05
8.2229e-05
8.0189e-05
8.00599e-05
8.12908e-05
8.37208e-05
8.74454e-05
9.2432e-05
9.68991e-05
9.56751e-05
8.91929e-05
7.90516e-05
7.31765e-05
7.2176e-05
7.29394e-05
7.53846e-05
7.75902e-05
7.90362e-05
7.9881e-05
8.11047e-05
8.2567e-05
8.47399e-05
8.49042e-05
8.41988e-05
8.33727e-05
8.48409e-05
8.99065e-05
9.89138e-05
9.17556e-05
7.93861e-05
7.5248e-05
7.98516e-05
2.62812e-05
2.63106e-05
2.63593e-05
2.6435e-05
2.65502e-05
2.6698e-05
2.68533e-05
2.7019e-05
2.71892e-05
2.73949e-05
2.7682e-05
2.81289e-05
2.87475e-05
2.95474e-05
3.11326e-05
3.38342e-05
3.73621e-05
4.12965e-05
4.47428e-05
4.74384e-05
4.84072e-05
4.8352e-05
4.74801e-05
4.63742e-05
4.61468e-05
4.63237e-05
4.67324e-05
4.7448e-05
4.79178e-05
4.75566e-05
4.6479e-05
4.46733e-05
4.30877e-05
4.26128e-05
4.29696e-05
4.42835e-05
4.73239e-05
5.34166e-05
6.2007e-05
7.28346e-05
7.90948e-05
8.12139e-05
8.39955e-05
8.7432e-05
9.17556e-05
9.75237e-05
9.73127e-05
8.43857e-05
7.69775e-05
7.42664e-05
7.32181e-05
7.13411e-05
7.10711e-05
7.5266e-05
8.35621e-05
9.33294e-05
9.69683e-05
9.12623e-05
8.7074e-05
8.67709e-05
8.82206e-05
9.26929e-05
9.84101e-05
0.000100937
0.000100177
9.92159e-05
9.83613e-05
9.71105e-05
9.41351e-05
9.04077e-05
8.82263e-05
8.80566e-05
8.93021e-05
9.18713e-05
9.57871e-05
9.6384e-05
8.84293e-05
7.27216e-05
6.21945e-05
5.85282e-05
5.81239e-05
5.87697e-05
6.08696e-05
6.36692e-05
6.48146e-05
6.51735e-05
6.52728e-05
6.55536e-05
6.60661e-05
6.71663e-05
6.81046e-05
6.93396e-05
7.12759e-05
7.5627e-05
8.26733e-05
9.5356e-05
9.70046e-05
8.35763e-05
7.97502e-05
8.49981e-05
2.62759e-05
2.62781e-05
2.62828e-05
2.62921e-05
2.63094e-05
2.6334e-05
2.63593e-05
2.63892e-05
2.64349e-05
2.65301e-05
2.67015e-05
2.71642e-05
2.85447e-05
3.10595e-05
3.47728e-05
3.92664e-05
4.39337e-05
4.80017e-05
5.09768e-05
5.14694e-05
5.05479e-05
4.84713e-05
4.64133e-05
4.57305e-05
4.58366e-05
4.6113e-05
4.65e-05
4.68978e-05
4.68843e-05
4.64328e-05
4.51576e-05
4.31693e-05
4.16289e-05
4.15097e-05
4.18228e-05
4.28584e-05
4.54505e-05
4.98535e-05
5.54582e-05
6.19425e-05
6.70992e-05
7.1541e-05
7.62524e-05
8.09415e-05
8.57598e-05
9.25279e-05
9.86386e-05
9.50006e-05