/*--------------------------------*- C++ -*----------------------------------*\
| =========                 |                                                 |
| \\      /  F ield         | OpenFOAM: The Open Source CFD Toolbox           |
|  \\    /   O peration     | Version:  2.3.0                                 |
|   \\  /    A nd           | Web:      www.OpenFOAM.org                      |
|    \\/     M anipulation  |                                                 |
\*---------------------------------------------------------------------------*/
FoamFile
{
    version     2.0;
    format      ascii;
    class       volVectorField;
    location    "0.02";
    object      U;
}
// * * * * * * * * * * * * * * * * * * * * * * * * * * * * * * * * * * * * * //

dimensions      [0 1 -1 0 0 0 0];

internalField   nonuniform List<vector> 
5000
(
(53.5978 2.67209 1.71468)
(47.904 0.525799 1.85001)
(47.8617 -0.592862 1.3075)
(47.9938 -0.923956 0.770943)
(48.1499 -0.902845 0.0923037)
(48.5928 -0.502997 -0.114391)
(49.4183 -0.283025 -0.212248)
(50.4189 -0.107124 -0.222147)
(51.6549 0.223753 -0.174546)
(51.9721 0.200185 -0.247742)
(51.8536 0.150868 -0.402291)
(51.0435 0.343595 -0.676616)
(49.3641 0.500887 -1.02335)
(47.6032 0.606399 -1.06209)
(45.4552 0.441886 -0.665304)
(45.5731 0.088618 -0.528574)
(46.1208 -0.00885271 -0.280406)
(47.4247 -0.202052 -0.0427215)
(49.3759 -0.0292943 -0.347539)
(49.6754 0.0384564 -0.526768)
(49.5345 0.239092 -0.571169)
(48.4519 0.481884 -0.586996)
(46.4977 0.312452 -0.538454)
(45.3245 -0.117163 -0.483288)
(45.0543 -0.252308 -0.463467)
(44.8942 -0.222098 -0.441619)
(44.8243 -0.170407 -0.412351)
(44.9931 -0.180652 -0.377836)
(45.5977 -0.282322 -0.389739)
(47.2501 -0.403997 -0.550193)
(50.4316 -0.537227 -0.626977)
(53.832 -0.383776 -0.113864)
(54.6873 -0.0663256 0.285348)
(54.5546 -0.0221182 0.293068)
(54.0765 0.0118678 0.404178)
(53.6485 0.076765 0.613206)
(53.0922 0.206271 0.67294)
(51.7976 0.430883 0.579154)
(48.7941 0.91131 0.408583)
(42.6453 0.982981 0.507311)
(37.8384 0.233086 0.896892)
(37.855 -0.0952831 0.995095)
(38.5808 -0.11972 1.13324)
(39.7524 -0.23584 1.31363)
(41.6284 -0.299517 1.42327)
(43.9575 -0.244356 1.67577)
(46.6005 -0.321095 2.19839)
(50.2135 -0.382276 2.64167)
(52.6917 1.02498 2.63438)
(54.9192 0.0689448 2.64265)
(58.1308 0.0326221 1.95327)
(59.4598 0.213762 1.11189)
(59.004 0.276747 0.98735)
(56.5779 0.41158 0.928675)
(50.9122 0.370807 0.58956)
(47.568 0.143762 0.0359542)
(44.8467 0.315426 -0.189635)
(41.5492 0.347214 0.00327616)
(40.1237 0.164014 0.479665)
(40.0637 0.0457266 0.605003)
(40.4886 0.0392502 0.732788)
(41.3559 0.033182 0.817761)
(42.6556 -0.118305 0.839554)
(44.835 -0.232671 0.881383)
(48.0234 -0.361523 1.06303)
(52.2627 -0.397234 1.80086)
(56.9586 -0.346744 2.80563)
(60.8298 0.0442182 3.06732)
(64.293 -0.282314 1.89149)
(65.7988 -0.00538791 0.650302)
(64.92 0.425735 0.427363)
(60.4284 0.964639 0.209918)
(48.5725 0.976915 0.187251)
(40.6147 0.25365 0.350045)
(39.6259 0.0933053 0.452597)
(39.6914 -0.0011036 0.501656)
(40.5694 -0.0857409 0.594952)
(42.1481 -0.142248 0.674364)
(43.8289 -0.148342 0.515649)
(45.3503 -0.155259 0.194935)
(47.0111 -0.177097 -0.104959)
(48.871 -0.192399 -0.209198)
(50.8313 -0.194885 -0.159097)
(52.9416 -0.183402 -0.300397)
(55.2311 -0.121358 -0.352439)
(56.6774 0.0211715 -0.255006)
(56.7445 0.108268 -0.221044)
(55.8979 0.207135 -0.161929)
(53.2578 0.203385 -0.197358)
(49.9627 0.142787 -0.311456)
(48.0645 0.214635 -0.620377)
(47.7212 0.0790233 -1.21163)
(47.7482 0.104334 -1.37239)
(48.079 -0.0198815 -1.63829)
(49.298 -0.114105 -1.87739)
(51.4561 -0.123758 -1.44807)
(52.4734 -0.0288189 -0.661722)
(52.0044 0.122548 -0.549441)
(50.287 0.116785 -0.350883)
(46.7008 0.0718483 -0.200456)
(52.1977 -0.715336 -4.56329)
(51.5211 -0.37857 -5.22433)
(51.0859 0.500103 -4.16926)
(49.2193 1.17741 -2.65624)
(46.7373 1.21598 -1.08875)
(45.6693 0.150547 -0.0614592)
(45.8755 -0.305585 0.0434799)
(46.5938 -0.825588 0.0187426)
(48.3033 -1.13436 -0.163935)
(49.789 -0.634117 -0.768045)
(50.6987 -0.145469 -1.2642)
(50.5905 0.254285 -1.37224)
(50.1335 0.356525 -1.59892)
(49.5924 0.435113 -1.89105)
(47.8482 0.156691 -0.886216)
(47.7395 -0.280962 -0.0406987)
(48.1783 -0.361893 0.395581)
(49.3199 -0.785674 0.804875)
(50.9936 -0.526666 1.23421)
(51.3575 -0.00893426 1.36928)
(51.3386 0.0727679 1.37588)
(50.9776 0.172919 1.41011)
(50.1513 0.471295 1.49896)
(49.3653 0.554543 1.6609)
(48.6389 0.521368 1.43286)
(47.8034 0.410306 0.828172)
(47.1597 0.181692 -0.0513799)
(47.1117 -0.0281444 -0.249822)
(47.4927 -0.271504 -0.392394)
(48.8746 -0.79153 -0.650445)
(51.9292 -0.9316 -0.81562)
(55.5322 -0.525021 -0.696157)
(56.4839 0.174955 -0.593398)
(56.3378 0.257304 -0.609488)
(55.7411 0.362668 -0.578808)
(55.136 0.172793 -0.509092)
(54.6028 0.294758 -0.423972)
(53.4924 0.487458 -0.23941)
(51.4643 0.989993 -0.141037)
(48.2943 1.28548 -0.541372)
(43.7065 0.943706 -0.614133)
(40.1184 0.0413914 0.318725)
(39.4495 -0.197302 0.856412)
(39.4396 -0.305398 0.896274)
(40.0348 -0.471039 0.972199)
(41.4293 -0.729456 1.21706)
(43.5661 -0.871345 1.61139)
(46.1804 -0.834096 2.22964)
(49.1947 -1.86491 2.98534)
(52.6204 -1.45757 3.37637)
(56.3456 -1.21235 3.08264)
(59.7352 -0.626473 1.72977)
(59.7441 0.252023 1.45014)
(57.8102 1.17952 1.40147)
(52.2489 1.51727 0.496211)
(46.9749 1.0153 -0.782381)
(42.7126 0.883942 -0.553484)
(39.4652 0.45852 0.505363)
(38.8177 0.0739656 1.10245)
(38.9616 -0.0594646 1.38734)
(39.7847 -0.208131 1.87667)
(40.9044 -0.27388 2.20317)
(42.4578 -0.304013 2.25688)
(44.8075 -0.427034 2.24442)
(48.1096 -0.586747 2.33185)
(52.4147 -0.796445 2.60739)
(57.3374 -0.866855 3.40992)
(62.9168 -1.11714 4.39651)
(68.4118 -0.867153 4.41042)
(73.5188 -0.67447 2.5475)
(73.1495 -0.0998207 1.92116)
(68.2185 1.77027 1.22222)
(52.6798 2.32937 0.49559)
(41.2539 0.90215 0.126521)
(39.5299 -0.00975988 0.147142)
(39.4662 -0.0372782 0.200316)
(40.2265 -0.229883 0.309912)
(41.4279 -0.208325 0.422307)
(42.9395 -0.235575 0.330816)
(44.5912 -0.223497 0.0292054)
(46.4681 -0.242913 -0.12034)
(48.5564 -0.270701 0.138468)
(50.7481 -0.33493 0.856431)
(53.0087 -0.494916 1.63643)
(55.5464 -0.540523 1.60463)
(57.6936 -0.423213 0.604271)
(58.0075 -0.141298 0.237205)
(57.2462 0.1735 0.251201)
(54.4903 0.587818 0.145946)
(49.9688 0.558971 -1.10204)
(47.7595 0.0719357 -2.3206)
(47.854 -0.0708368 -2.61321)
(48.4502 -0.186723 -2.93051)
(49.2707 -0.133133 -3.44272)
(50.7254 -0.229371 -3.62792)
(52.9216 -0.189556 -2.80885)
(53.8465 -0.00307471 -1.69708)
(53.3827 0.1467 -1.40697)
(51.8465 0.502433 -0.539895)
(47.3899 0.417924 -0.525568)
(50.9455 -0.176297 -1.82648)
(47.4923 0.030865 0.268745)
(47.3634 0.224572 0.914343)
(47.7803 0.348143 1.0394)
(48.4444 -0.0396231 0.534988)
(48.855 -0.286343 0.315807)
(49.2112 -0.488828 0.297852)
(49.7742 -0.833352 0.468796)
(50.8387 -0.803048 0.941652)
(52.048 -0.690083 1.1902)
(53.3914 -0.441057 1.20058)
(53.3748 0.172868 1.15732)
(52.8228 0.452201 0.915672)
(52.0695 1.1214 -0.00212062)
(49.8491 1.40272 -0.177379)
(48.4782 0.130437 0.578566)
(48.6144 -0.148048 0.70596)
(49.1628 -0.457644 0.742705)
(49.8656 -0.270786 1.05251)
(49.8041 -0.0162221 1.12446)
(49.3661 0.364542 1.2834)
(48.139 0.712359 1.2369)
(46.5809 0.529935 0.575783)
(46.1173 0.00144236 0.182376)
(46.1407 -0.00535625 0.0237435)
(46.1474 -0.0242416 -0.189331)
(46.2762 -0.098977 -0.418212)
(46.6493 -0.320337 -0.564328)
(47.5568 -0.712501 -0.745558)
(49.2715 -1.34345 -1.1026)
(52.2158 -1.80149 -1.59854)
(55.6773 -1.39916 -1.14818)
(57.3577 -0.201171 -0.0373229)
(57.5023 0.112943 0.315007)
(57.4417 0.307009 0.345832)
(57.2204 0.278057 0.264882)
(56.5794 0.598021 0.146889)
(55.0464 0.988534 0.143244)
(52.5311 1.6346 -0.0245702)
(48.9524 2.23076 -0.536299)
(43.9562 2.22586 -0.64405)
(40.0197 1.21718 0.14565)
(38.936 0.397237 0.644296)
(38.8442 -0.0826374 0.712997)
(39.3902 -0.375028 0.757082)
(40.8672 -0.573775 0.895638)
(43.0644 -0.875021 1.19812)
(46.2174 -1.01512 1.70721)
(49.3522 0.00285223 1.66761)
(52.2559 -0.535681 0.50342)
(56.0045 -1.21025 -0.8241)
(60.6322 -1.11579 -0.0646407)
(61.2361 0.0857059 0.702046)
(59.2982 1.35866 0.785465)
(52.3387 2.19585 -0.280962)
(45.8806 1.77067 -0.521872)
(41.2388 1.59901 0.707971)
(38.4333 1.04549 1.98315)
(38.0807 0.461551 2.40268)
(38.3482 0.285671 2.69828)
(39.3687 0.290019 3.14356)
(40.5425 0.346397 3.45979)
(42.02 0.0942277 3.58983)
(44.4589 -0.16152 3.5793)
(48.0332 -0.590151 3.09632)
(52.5309 -0.876013 2.47991)
(57.7288 -1.15819 2.39914)
(63.5792 -1.14394 3.11878)
(69.1552 -1.57402 3.82389)
(76.6892 -0.892155 3.17225)
(78.8856 -0.309132 2.24618)
(76.5242 1.50104 1.91516)
(63.7218 3.77007 1.16755)
(44.8183 1.36993 0.562457)
(39.5838 0.1069 0.506227)
(39.241 0.156872 0.530409)
(39.7709 -0.184052 0.568338)
(40.9819 -0.164334 0.60316)
(42.681 -0.246632 0.511217)
(44.6217 -0.316198 0.193467)
(46.7994 -0.415686 0.141615)
(49.1787 -0.435716 0.610237)
(51.6094 -0.387738 1.65791)
(54.0754 -0.443943 2.56672)
(56.6471 -0.603866 2.8384)
(59.5402 -0.642094 2.06185)
(61.207 -0.505342 1.29675)
(60.6438 -0.0651461 1.29834)
(57.6215 0.631801 1.25269)
(51.228 0.706659 -0.132284)
(46.8988 0.225859 -1.65397)
(46.5345 -0.0368731 -2.06322)
(46.7015 -0.0309565 -2.35131)
(47.2867 -0.182641 -2.92002)
(49.056 -0.369947 -3.52333)
(52.1442 -0.363064 -3.32718)
(54.2376 -0.0358604 -2.114)
(53.9458 0.274441 -1.85321)
(52.6968 0.699331 -1.33775)
(48.2911 0.621823 -0.846078)
(45.6799 1.73823 2.0042)
(44.6859 0.0588452 0.351241)
(46.9443 -0.653842 -0.969705)
(49.518 -0.395267 -2.32056)
(51.3713 0.179859 -2.63849)
(51.9201 -0.245954 -2.469)
(51.7666 -0.609276 -2.3742)
(51.3229 -1.14381 -1.63266)
(50.8765 -1.79894 -0.547681)
(50.6037 -1.49752 0.00442427)
(50.9831 -0.882552 0.212261)
(51.1221 0.40533 0.438045)
(50.5816 0.599685 0.559898)
(50.0736 1.29508 0.910768)
(48.5735 1.54009 0.934175)
(47.6258 0.382236 0.652419)
(48.012 -0.197599 0.637489)
(48.8293 -0.810354 0.713171)
(50.0339 -0.346899 -0.0517533)
(50.3169 0.380853 -0.49129)
(50.1534 0.687022 -0.643882)
(49.6022 0.958168 -0.755785)
(48.4755 0.959183 -0.78397)
(47.9996 0.463395 -0.75765)
(47.9715 0.353291 -0.716228)
(47.835 0.205855 -0.658485)
(47.651 -0.0912641 -0.595013)
(47.6432 -0.490418 -0.540769)
(48.0237 -0.971329 -0.482261)
(49.4181 -1.82077 -0.54587)
(52.3232 -2.17654 -0.594668)
(55.6416 -1.67283 -0.388796)
(56.6297 -0.161543 -0.094083)
(56.5803 0.103036 -0.0274212)
(56.2084 0.342571 -0.0326884)
(55.4812 0.320359 -0.271309)
(54.5689 0.87131 -0.429562)
(53.0062 1.38026 -0.396199)
(50.6793 2.22523 -0.457454)
(47.1092 2.97947 -0.744916)
(41.5992 2.91904 -0.465191)
(38.5141 1.22794 0.223708)
(38.3058 0.188808 0.461995)
(38.447 -0.14676 0.510542)
(39.1965 -0.579581 0.554233)
(40.9385 -1.04534 0.484405)
(43.3061 -1.31719 0.494496)
(46.3294 -1.42065 0.726816)
(49.9073 -1.52167 0.328789)
(53.5009 -1.10584 -1.43481)
(57.5808 -1.47069 -2.86856)
(62.8185 -1.17426 -2.11608)
(64.288 -0.668174 -1.06355)
(62.2914 0.712429 -0.926424)
(53.742 2.73951 -1.26278)
(44.1855 2.08901 0.0572913)
(39.8147 2.06554 1.48202)
(37.4885 1.24787 2.12403)
(37.213 0.55404 2.24661)
(37.4298 0.435195 2.30974)
(38.3444 0.248577 2.39951)
(39.4052 0.203406 2.21941)
(40.8775 -0.0605343 1.91947)
(43.3335 -0.528554 1.57998)
(47.0525 -1.0835 1.44802)
(52.021 -1.5312 1.49044)
(57.5243 -2.09498 1.39831)
(64.2641 -1.88582 0.99256)
(69.9145 -2.31353 -0.00364999)
(77.2049 -2.34633 -0.348567)
(82.4303 -1.14159 0.431774)
(81.7698 1.06428 0.638462)
(75.7691 4.09495 0.685948)
(55.8437 4.0716 0.636577)
(41.1476 -0.106169 0.762359)
(39.7803 0.244551 0.810937)
(40.1836 -0.181403 0.815316)
(41.1491 -0.0872982 0.858633)
(42.6785 -0.263706 0.861291)
(44.6756 -0.376139 0.714597)
(46.9306 -0.5269 0.516718)
(49.3212 -0.637804 0.568619)
(51.738 -0.691426 0.962823)
(54.1775 -0.771615 1.57427)
(56.7281 -0.925672 1.95954)
(59.5966 -0.842244 1.86824)
(62.7484 -0.661371 1.5204)
(63.5814 -0.581787 1.41058)
(62.3241 0.207028 1.48521)
(56.8942 0.951135 1.20993)
(48.7788 0.210011 -0.484831)
(46.1661 -0.194079 -1.77826)
(46.1506 -0.118863 -1.9715)
(46.5566 -0.219776 -2.2503)
(48.0148 -0.545283 -2.61859)
(51.2757 -0.62117 -2.80153)
(54.3028 -0.13191 -2.18625)
(54.3519 0.129592 -2.03743)
(53.4047 1.05151 -1.59594)
(49.2834 0.942078 -1.07814)
(51.3232 -0.394087 0.623662)
(50.6219 -1.7243 -0.330074)
(50.1463 -2.20299 -2.05187)
(49.6415 -2.13647 -3.12187)
(49.1639 -1.6137 -3.68069)
(48.5118 -0.558235 -4.48815)
(48.0407 0.008705 -4.66483)
(47.9214 -0.125146 -2.64283)
(48.0098 -0.0494658 -2.20526)
(48.4744 -0.215452 -1.8129)
(50.0932 -0.723178 -1.92766)
(51.851 0.264484 -0.944976)
(51.5924 0.549844 -0.718179)
(51.5284 1.71408 -0.676178)
(50.7677 2.03402 -0.789538)
(49.3256 0.490154 -0.485339)
(49.3777 -0.368619 -0.345162)
(49.6805 -0.819141 -0.202993)
(50.0088 -0.608474 -0.137295)
(49.9066 -0.00222891 -0.171519)
(49.3563 0.524946 -0.278311)
(48.3829 1.04923 -0.299531)
(47.0183 0.908637 -0.531415)
(46.3399 -0.00831733 -0.735523)
(46.3606 -0.0601896 -0.762122)
(46.2532 -0.060512 -0.716277)
(46.0816 -0.0756398 -0.556558)
(46.1321 -0.31486 -0.421927)
(46.8368 -0.997326 -0.297388)
(48.7419 -2.20424 -0.295586)
(52.0552 -2.95192 -0.296418)
(55.984 -2.235 -0.0167596)
(57.1431 -0.186179 0.252229)
(57.0295 0.229874 0.35082)
(56.608 0.638634 0.300831)
(55.7892 0.634102 -0.160541)
(54.7105 1.24517 -0.573786)
(53.0132 1.80546 -0.685881)
(50.5797 2.79284 -0.88665)
(46.5506 4.09741 -0.986288)
(40.6275 3.99718 -0.455227)
(37.9326 1.73879 0.138463)
(37.9377 0.464632 0.225965)
(38.2171 -0.0120124 0.254132)
(39.2655 -0.482701 0.258054)
(41.1439 -0.798039 0.161511)
(43.4538 -1.17722 0.0403326)
(46.6624 -1.37289 -0.0064509)
(50.3942 -0.827916 -0.154982)
(53.8679 -0.800604 -0.242333)
(57.8443 -1.24026 -0.114286)
(62.876 -0.886238 -0.29733)
(65.2631 0.594604 -0.732599)
(63.4565 1.13251 -0.977778)
(55.8273 3.60356 -1.14019)
(44.3332 3.05884 0.379839)
(39.4837 2.07841 1.08799)
(36.9106 1.85864 1.22118)
(36.5606 1.17672 1.21255)
(36.8468 1.08062 1.16072)
(37.8175 0.98433 1.01322)
(38.9302 0.962023 0.833391)
(40.186 0.43137 0.765566)
(42.7169 -0.238973 0.781918)
(46.7352 -1.19229 0.643227)
(52.1308 -1.79743 0.553764)
(58.3449 -2.67893 0.704439)
(66.1109 -2.69705 0.696805)
(72.6759 -2.89761 0.698234)
(80.0254 -2.86597 0.726137)
(86.5569 -1.56015 0.335794)
(86.3632 0.341625 0.242659)
(82.7028 4.4353 0.163927)
(68.3394 5.73161 0.21841)
(44.5745 1.73895 0.582107)
(40.6603 -0.0949092 0.733895)
(40.6881 -0.173033 0.763198)
(41.3209 0.0226751 0.76588)
(42.4774 -0.268051 0.739703)
(44.5253 -0.4723 0.76405)
(46.9767 -0.688812 0.84059)
(49.5405 -0.771519 0.861868)
(52.0558 -0.731515 0.807497)
(54.5404 -0.700181 0.689153)
(56.9941 -0.761662 0.59365)
(59.6137 -0.963264 0.546948)
(62.8852 -0.825645 0.601414)
(65.2077 -0.504019 0.990096)
(65.0154 -0.0996342 1.11233)
(62.1393 0.838198 1.1257)
(53.0547 0.901601 0.0804192)
(46.6714 -0.177084 -1.2516)
(45.9585 0.0396733 -1.5732)
(46.2425 -0.119588 -1.66959)
(47.5385 -0.547725 -1.8187)
(50.7588 -0.764414 -1.99095)
(54.3546 -0.256603 -1.75598)
(54.7001 0.259263 -1.67378)
(53.8015 1.12792 -1.57934)
(49.4479 1.01958 -1.16907)
(52.7458 -1.44142 0.802751)
(52.2284 -0.157421 1.32876)
(51.5648 0.103157 1.88515)
(49.8544 0.442557 1.9152)
(47.5923 1.09441 1.58144)
(45.788 0.520421 1.43288)
(45.7522 -0.284168 1.42229)
(46.3699 -0.951487 1.44032)
(47.8676 -1.81263 1.39816)
(49.9057 -2.40939 1.22121)
(52.7658 -2.35459 0.96779)
(54.0085 -0.219859 0.750968)
(53.666 0.388754 0.68711)
(52.962 1.2814 0.499474)
(50.9683 2.04867 0.372671)
(48.0396 1.40064 0.332029)
(47.7799 -0.170395 0.27273)
(48.2275 -0.465293 0.256322)
(49.403 -0.002205 0.431437)
(49.4695 0.734798 0.53188)
(48.7316 1.19078 0.625312)
(47.2998 1.56602 0.52813)
(45.1129 1.49237 -0.118326)
(44.2926 0.526921 -0.554505)
(44.4064 0.351492 -0.620863)
(44.5442 0.22491 -0.585621)
(44.8912 -0.0841854 -0.30092)
(45.2999 -0.763572 -0.124834)
(46.2703 -1.71833 -0.303143)
(48.4141 -3.20647 -0.792961)
(51.6731 -3.9225 -1.06221)
(55.5418 -3.00192 -0.580121)
(57.433 -0.33356 0.156664)
(57.313 0.136443 0.308932)
(56.8553 0.521655 0.402781)
(56.0642 0.740431 0.221216)
(55.1309 1.5531 -0.116376)
(53.3149 2.20104 -0.364749)
(50.5009 3.64198 -0.613542)
(46.1899 5.23738 -0.750642)
(40.6225 4.76889 -0.406492)
(37.6742 1.81702 0.0646489)
(37.6377 0.348921 0.130977)
(37.9113 -0.0197656 0.126674)
(38.8682 -0.582713 0.0677144)
(40.7767 -1.00548 -0.0544652)
(43.2636 -1.38099 -0.113444)
(46.683 -1.87595 -0.163872)
(50.8524 -1.64277 -0.302499)
(54.8484 -1.44988 -0.188284)
(59.1305 -1.67309 0.281533)
(64.3004 -0.889992 0.353669)
(66.4931 0.696603 -0.138101)
(64.6952 1.03006 -0.400566)
(57.5656 3.13058 -0.624687)
(44.765 4.39525 0.467895)
(39.7415 1.95569 0.9216)
(37.0751 2.45509 0.883332)
(36.2558 1.33773 0.862935)
(36.5039 1.28782 0.85265)
(37.3953 0.946106 0.84871)
(38.4131 0.925936 0.867986)
(39.8735 0.239431 0.871382)
(42.5651 -0.657566 0.83385)
(46.8282 -1.74769 0.751287)
(52.8039 -2.36377 0.655273)
(59.5612 -3.79262 0.617182)
(68.1459 -3.65281 0.562044)
(75.0885 -3.39385 0.501549)
(81.9883 -3.93393 0.650065)
(88.9813 -2.25917 0.475954)
(89.8055 -0.059521 0.351559)
(87.4932 3.64008 0.274549)
(79.5702 5.84191 0.187065)
(53.8582 3.58293 0.402514)
(41.7325 -0.916323 0.597372)
(41.5508 -0.262891 0.599861)
(41.8406 0.161089 0.57589)
(42.5599 -0.240875 0.525387)
(44.484 -0.520375 0.441797)
(47.0156 -0.788424 0.574347)
(49.7443 -0.941163 0.974207)
(52.4629 -0.987487 1.3564)
(55.1641 -1.02961 1.37954)
(57.8404 -1.04096 0.981294)
(60.4811 -0.920792 0.483349)
(63.5015 -0.932042 0.298079)
(66.2931 -0.70465 0.541798)
(66.445 -0.358698 0.656282)
(64.9985 0.464598 0.705287)
(59.2937 0.97986 0.420826)
(49.1755 -0.282717 -0.572389)
(46.3089 -0.314685 -1.04122)
(46.4263 -0.0484598 -1.13772)
(47.5867 -0.674871 -1.28252)
(50.8027 -1.0024 -1.40052)
(54.7216 -0.427219 -1.2695)
(55.3374 0.196697 -1.22062)
(54.5054 1.42585 -1.19389)
(49.9929 1.39361 -0.941798)
(46.3048 0.228312 -3.41071)
(45.2975 -1.46951 1.7)
(46.546 -1.277 1.63769)
(47.9499 -0.292326 0.918799)
(48.8681 0.040486 0.542618)
(49.0405 0.142822 0.492027)
(48.9979 -0.414029 0.51672)
(49.3335 -1.23333 0.639111)
(50.0392 -1.72934 0.619967)
(51.25 -2.21255 0.172569)
(53.4796 -2.55329 -0.252943)
(54.7721 -0.0231153 -0.406002)
(54.3757 0.962338 -0.426784)
(53.127 2.92311 -0.528799)
(50.5826 4.00344 -0.598005)
(46.9992 2.08175 -0.592433)
(46.8606 -0.312233 -0.587271)
(47.6165 -1.13644 -0.598834)
(49.1595 -1.06423 -0.175193)
(49.4917 0.570193 0.115923)
(48.9333 1.34385 0.208588)
(47.7324 2.25194 0.173494)
(45.8367 1.90625 0.140366)
(44.8514 0.0703855 0.236073)
(44.9662 -0.222294 0.279182)
(45.0753 -0.445553 0.332283)
(45.0913 -0.353276 -0.0223864)
(45.1982 -0.591833 -0.170127)
(45.8747 -1.62839 -0.48682)
(47.8782 -3.44316 -0.988505)
(51.2768 -5.35029 -1.34332)
(55.1751 -4.67582 -0.939013)
(57.1005 -0.973804 -0.142157)
(56.9592 0.368106 -0.0050953)
(56.6351 0.913037 0.0925383)
(56.0427 1.02627 0.233869)
(55.1275 1.81137 0.334218)
(53.4439 2.86827 0.1839)
(50.6021 4.38312 -0.209556)
(46.1519 6.19622 -0.483244)
(41.0085 5.63251 -0.332824)
(37.5712 2.43431 -0.148985)
(37.2654 0.653839 -0.128558)
(37.5812 0.317634 -0.148136)
(38.5932 -0.253284 -0.200421)
(40.5716 -0.682437 -0.264348)
(43.194 -1.28285 -0.265774)
(46.9406 -1.84193 -0.181598)
(51.5153 -1.67928 -0.156482)
(55.9793 -1.41755 -0.297386)
(60.8477 -2.02366 -0.383907)
(66.4789 -0.446243 -0.397912)
(68.3591 2.0763 -0.484997)
(66.5437 2.66668 -0.58535)
(59.5959 4.04515 -0.663919)
(44.957 5.54019 0.215557)
(39.8322 1.42803 0.623444)
(37.0483 3.19837 0.720317)
(35.7809 1.90873 0.755337)
(36.0735 1.94511 0.765298)
(37.0245 1.73368 0.778759)
(38.3069 1.5836 0.659894)
(39.5692 0.813774 0.491698)
(42.2462 -0.097614 0.376117)
(46.7564 -1.652 0.325164)
(53.213 -2.73351 0.336295)
(60.0714 -4.32428 0.366334)
(68.97 -4.20743 0.452673)
(75.9481 -4.23184 0.389176)
(81.7333 -5.05864 0.128948)
(87.2479 -3.08095 0.109849)
(90.0589 0.174809 0.171066)
(88.9649 2.95686 0.169673)
(84.2895 7.9085 0.145921)
(68.2032 6.46822 0.2559)
(45.2806 0.526351 0.512528)
(41.7269 -1.58432 0.52944)
(42.0932 0.508608 0.453286)
(42.6721 -0.149679 0.33657)
(44.584 -0.500393 0.102317)
(47.2219 -0.832872 0.169889)
(50.1357 -1.00415 0.731571)
(53.0478 -0.975383 1.39858)
(55.8759 -0.922683 1.56149)
(58.5724 -0.974051 1.01567)
(61.1222 -1.08642 0.305771)
(64.0052 -1.05591 0.0121608)
(66.8544 -0.53688 0.188815)
(67.2347 -0.220259 0.318996)
(66.4511 0.269346 0.386041)
(63.4373 0.929397 0.391067)
(53.2983 0.926502 -0.292102)
(46.8328 -0.588171 -1.10457)
(46.6778 0.0120217 -1.26411)
(47.797 -0.725992 -1.40052)
(51.1106 -1.20767 -1.53818)
(55.2813 -0.565589 -1.34969)
(56.0079 0.345334 -1.2634)
(55.1383 1.49772 -1.17372)
(50.3968 1.55787 -0.893965)
(49.4527 -0.0158693 4.30413)
(48.5564 -0.526833 2.77625)
(49.4344 -1.11305 0.496467)
(49.3313 -0.626622 -0.108087)
(48.8925 0.317571 -0.0990623)
(47.8217 0.751955 0.1361)
(46.9589 -0.352799 0.879109)
(47.3549 -1.05866 1.06923)
(48.6404 -2.21547 1.29341)
(50.7926 -3.56481 0.957829)
(53.8034 -3.43754 0.519868)
(56.5394 -0.350262 -0.858473)
(56.5371 1.091 -1.2201)
(55.3419 2.77481 -1.5465)
(52.6997 4.07593 -1.55746)
(48.8283 3.12948 -0.72964)
(47.8812 -0.42714 -0.221012)
(48.3788 -0.832691 -0.228527)
(49.3862 -0.445712 -0.105689)
(49.5712 0.769749 0.0168937)
(48.8877 1.56459 0.0665007)
(47.6703 2.35904 0.0782291)
(45.8956 2.3329 0.0896447)
(44.5712 0.691546 0.101989)
(44.5672 0.294944 0.0600363)
(44.7429 0.266492 0.233556)
(45.0122 0.0659596 -0.267051)
(44.92 -0.445154 -0.488754)
(45.3415 -1.1192 -0.680706)
(47.1569 -2.32421 -1.00698)
(51.068 -5.93476 -1.49428)
(55.3948 -7.86633 -1.13765)
(59.21 -3.73955 -0.163735)
(58.8546 -1.55467 0.0264487)
(57.8181 0.203346 0.180243)
(56.5321 0.827308 0.272827)
(55.7951 2.35615 0.286128)
(54.3739 3.14169 0.167648)
(51.2431 5.28653 -0.165479)
(46.5845 7.32163 -0.134753)
(41.8488 6.58505 0.0745719)
(38.0736 3.01917 -0.240418)
(37.2011 0.86975 -0.467605)
(37.4837 0.491539 -0.494591)
(38.3845 -0.190224 -0.49823)
(40.3933 -0.730001 -0.425865)
(43.1884 -1.39084 -0.224595)
(47.2257 -2.47844 -0.0361986)
(52.336 -2.21008 -0.10092)
(57.4634 -2.14206 -0.156993)
(63.2881 -2.63685 0.140531)
(68.9723 -0.624151 0.118907)
(70.1857 2.2667 -0.220328)
(68.6664 3.33379 -0.331746)
(62.3825 4.45918 -0.513117)
(46.0703 6.36868 0.0826815)
(39.0801 1.63624 0.567094)
(36.9295 3.78344 0.623386)
(35.5353 2.25687 0.623718)
(35.8402 2.19425 0.619991)
(36.7658 1.70202 0.576571)
(37.7947 1.79362 0.457855)
(39.1375 0.969499 0.34847)
(41.8053 -0.399973 0.263049)
(46.3778 -2.22081 0.265614)
(53.3578 -3.14852 0.376744)
(60.0444 -5.45076 0.252262)
(68.024 -6.0996 -0.038107)
(72.9659 -5.43649 -0.205792)
(77.0538 -5.02714 -0.15391)
(79.7702 -3.49109 -0.122177)
(84.0714 -1.04228 -0.0223294)
(85.8928 3.65067 0.0805875)
(83.5582 6.26032 0.0757996)
(77.0778 6.27504 0.128912)
(55.6322 1.92438 0.424081)
(41.9644 -1.45383 0.497483)
(41.7545 0.132869 0.446675)
(42.5146 -0.13791 0.353279)
(44.7383 -0.473686 0.112656)
(47.5357 -0.81237 -0.000333811)
(50.4928 -1.04018 0.466664)
(53.396 -1.16188 1.38041)
(56.2062 -1.27088 1.8013)
(58.893 -1.27635 1.19306)
(61.2892 -1.23463 -0.20512)
(63.6097 -1.32847 -1.1515)
(66.0962 -0.884459 -0.85592)
(66.9479 -0.364191 -0.378035)
(66.4605 0.102278 -0.269353)
(64.3694 0.572775 -0.184364)
(56.5739 0.707668 -0.441525)
(48.2519 -0.573167 -0.917821)
(47.2261 -0.293883 -1.02705)
(48.3161 -0.96501 -1.02862)
(51.5909 -1.56022 -1.01754)
(55.7398 -0.817826 -1.01082)
(56.5342 0.311369 -1.02192)
(55.6531 1.80779 -1.00727)
(50.734 1.94634 -0.809744)
(47.7513 -3.214 -0.740002)
(47.2603 -3.05273 -0.994364)
(48.7046 -2.41755 -0.877759)
(48.5789 -0.573042 0.0486886)
(47.7838 0.278944 1.05418)
(46.836 0.80223 2.35631)
(46.7742 -0.271506 2.64098)
(47.603 -1.9127 2.6735)
(49.6711 -3.14586 1.81188)
(52.2602 -4.64997 1.13425)
(54.6539 -6.41349 1.20283)
(56.946 -1.82298 0.559934)
(57.1203 1.51474 0.381518)
(55.5525 5.33831 0.253987)
(52.7329 6.47695 0.0981182)
(48.3454 4.81317 -0.284573)
(45.9446 -0.218081 -0.730624)
(46.6503 -1.42602 -0.84275)
(48.2971 -1.59369 -0.900632)
(49.3275 0.968678 -0.836786)
(48.7375 2.06955 -0.787099)
(47.4971 3.26048 -0.666556)
(45.6213 3.03076 -0.485775)
(44.114 0.728651 -0.176657)
(43.999 -0.0645602 -0.0646393)
(44.2579 -0.337852 -0.0127664)
(44.7463 0.453572 -0.724168)
(44.6105 1.3221 -1.09562)
(44.9977 2.49485 -1.33086)
(46.9113 1.91371 -1.45618)
(50.8284 -2.93352 -1.21163)
(54.4441 -10.5264 -0.606725)
(57.5552 -9.78665 -0.212397)
(60.8537 -6.99854 -0.0423899)
(60.2846 -4.62564 0.0209824)
(58.1479 -2.57539 0.153956)
(55.8346 0.997348 0.10224)
(54.207 3.22071 0.0530079)
(51.6697 5.94341 0.0698703)
(47.4225 8.06201 0.0215648)
(42.801 7.37072 -0.276635)
(38.4024 3.87339 -0.126879)
(37.0291 1.40018 0.221192)
(37.2213 1.01499 0.293486)
(38.1001 0.3291 0.373732)
(40.1741 -0.258848 0.49199)
(43.1918 -1.19235 0.624802)
(47.7402 -2.2829 0.678747)
(53.5407 -2.55111 0.520346)
(59.5697 -2.34301 0.085188)
(67.0052 -3.46632 -0.151176)
(72.1767 -0.386369 -0.13769)
(72.1428 3.87046 -0.161912)
(70.822 5.0767 -0.256732)
(65.349 6.82859 -0.473527)
(49.6955 7.76568 -0.0976958)
(38.824 1.44908 0.468562)
(36.3104 3.8683 0.543281)
(34.9577 2.82142 0.539181)
(35.309 2.85117 0.511725)
(36.3621 2.65574 0.48644)
(37.6763 2.62131 0.411313)
(38.7257 1.84386 0.296266)
(41.3588 0.35726 0.204702)
(45.9284 -2.035 0.0857257)
(52.5767 -4.20231 -0.0219179)
(57.7022 -6.11716 0.0129633)
(62.9462 -6.58279 0.0891533)
(65.393 -6.16149 0.16619)
(68.1705 -5.22477 0.233887)
(71.2328 -2.74102 0.308412)
(74.7928 -0.612891 0.305498)
(79.4196 2.83293 0.167358)
(79.8428 7.06353 0.0942751)
(76.8771 8.20565 0.071461)
(63.6902 3.83314 0.215453)
(44.6842 -0.759578 0.584212)
(41.8402 -0.0984749 0.629823)
(42.636 -0.217176 0.619973)
(44.8646 -0.534981 0.562917)
(47.7172 -0.779911 0.438195)
(50.672 -1.03918 0.169359)
(53.3666 -1.17579 -0.124227)
(55.6577 -1.3246 -0.0451863)
(57.667 -1.47509 0.138165)
(59.4641 -1.51286 0.155289)
(61.1865 -1.5188 0.0202305)
(62.9446 -0.938222 -0.097517)
(64.6059 -0.40282 -0.138115)
(64.7017 0.137658 -0.144086)
(63.249 0.702806 -0.161398)
(57.7865 1.44755 -0.330082)
(50.2004 -0.103944 -0.647445)
(48.2436 -0.354445 -0.756511)
(49.1403 -0.965355 -0.746025)
(52.1568 -1.78822 -0.703492)
(56.0136 -0.980409 -0.741791)
(56.838 0.368626 -0.786844)
(55.898 1.88958 -0.795495)
(50.7461 2.17181 -0.666601)
(50.3397 -1.02432 0.0493106)
(50.4686 -0.820527 -0.23219)
(51.2447 -0.80476 0.0511636)
(51.2694 0.408082 0.690697)
(50.8891 1.7014 1.30836)
(50.1147 2.19293 1.64949)
(49.5084 0.89287 1.61886)
(50.2619 -0.23042 1.39607)
(50.9628 -1.67176 1.05129)
(52.6789 -2.08811 0.611613)
(53.5724 -4.21831 0.122436)
(56.5318 -4.71155 0.00296069)
(61.0339 -0.814296 0.106349)
(57.2585 4.74303 0.257012)
(51.5151 7.74541 0.309622)
(46.4951 6.91125 -0.121663)
(44.3881 1.11958 -0.428461)
(45.5047 -0.887315 -0.457902)
(48.142 -1.9766 -0.572236)
(50.8445 0.184856 -0.960485)
(50.2594 2.68247 -1.02647)
(48.1871 4.34216 -1.05066)
(45.3494 4.30444 -0.755561)
(42.9281 2.13144 -0.285734)
(42.8565 1.43214 -0.182196)
(43.0578 1.38138 -0.0341072)
(43.1705 1.91639 0.0244172)
(43.0827 2.76756 0.00286102)
(43.6258 3.30772 0.111927)
(46.1411 3.10019 1.10637)
(50.6177 -1.80903 1.87814)
(51.3718 -8.30392 0.984845)
(50.8386 -8.59287 0.46828)
(52.8257 -9.35294 0.26239)
(56.8906 -10.6041 0.0788157)
(60.1028 -5.17893 0.0517491)
(58.8617 -2.99777 0.0314995)
(55.993 1.775 -0.01078)
(52.3199 6.025 0.0142737)
(47.6118 8.92896 -0.152901)
(42.7662 8.45056 -0.359613)
(38.4003 5.05495 -0.0214742)
(36.686 1.90965 0.31065)
(36.7841 1.39123 0.340756)
(37.5267 0.604314 0.279155)
(39.7781 -0.093772 0.277149)
(43.2299 -1.11999 0.329554)
(48.3174 -3.05055 0.307904)
(54.9701 -2.82583 0.269885)
(62.2877 -3.23548 -0.27609)
(70.5858 -4.46204 -0.801615)
(75.6105 0.276759 -0.386907)
(75.3886 3.54492 -0.273362)
(73.2125 5.40558 -0.229316)
(67.7139 7.5442 -0.437941)
(56.105 8.5745 -0.223816)
(41.5974 3.56078 0.324908)
(35.4552 3.56006 0.492399)
(34.0736 3.18361 0.464162)
(34.5596 3.13883 0.442802)
(35.8746 2.59644 0.450304)
(37.1899 3.35483 0.38215)
(38.2656 2.17893 0.290949)
(40.593 0.64869 0.209819)
(44.3433 -3.29254 -0.0292985)
(51.2613 -4.53546 -0.145234)
(53.6351 -7.65626 0.255964)
(55.2791 -7.79122 0.318082)
(56.8153 -6.66152 0.257085)
(59.6644 -5.83525 0.235095)
(63.8472 -2.86622 0.329913)
(67.681 -0.0793086 0.425318)
(72.224 3.11259 0.325883)
(74.7331 6.99137 0.135226)
(73.626 7.27249 0.0816396)
(61.4106 3.50887 0.201782)
(44.6692 1.14922 0.646637)
(42.4206 -0.450024 0.731369)
(42.8456 -0.180386 0.721105)
(44.8452 -0.465912 0.583562)
(47.5471 -0.81453 0.288502)
(50.0478 -1.20766 -0.0417176)
(51.9529 -1.53903 -0.19402)
(53.3636 -1.72156 -0.101212)
(54.6914 -1.68122 0.109361)
(56.0366 -1.58319 0.30142)
(57.4967 -1.61761 0.410674)
(58.9854 -1.24603 0.357968)
(60.5658 -0.744926 0.122653)
(60.8975 0.0378453 -0.00566483)
(59.7601 0.513069 -0.0504023)
(55.4259 1.16796 -0.218483)
(49.9462 0.225949 -0.511395)
(48.6869 -0.63609 -0.608888)
(49.4966 -1.13715 -0.593323)
(52.3761 -1.99761 -0.520554)
(56.082 -1.17974 -0.559952)
(57.1468 0.247596 -0.643868)
(56.1064 2.06749 -0.673825)
(50.7682 2.54911 -0.576808)
(23.4966 1.42086 -0.0672536)
(22.5847 -0.522474 0.216246)
(29.5756 -3.61147 0.299392)
(36.2836 -3.11507 1.32474)
(41.093 3.28459 1.40166)
(42.7717 7.98647 1.15583)
(41.2109 8.23157 1.08484)
(39.4591 6.47009 0.722174)
(37.6125 5.26315 0.411835)
(38.2607 0.0372492 -0.0120893)
(40.5061 -7.3667 -0.328342)
(44.897 -12.8098 -0.799938)
(56.866 -7.55068 -0.263245)
(56.291 0.0882776 0.120216)
(51.6007 7.84457 0.424531)
(46.0816 5.94178 -0.0141474)
(42.6028 3.24699 -0.437021)
(43.8803 1.51812 -0.474489)
(46.8119 -0.789559 -0.412024)
(52.1272 -2.09702 -0.694754)
(52.4744 1.04099 -0.842322)
(49.4614 5.19593 -0.973034)
(45.0195 4.98738 -0.834559)
(41.6342 3.65754 -0.341535)
(40.9576 2.30076 -0.134184)
(41.1459 2.11735 -0.0479414)
(41.2989 3.16251 0.0660662)
(40.965 4.5169 0.162395)
(41.3224 6.65444 0.388568)
(42.4081 5.83465 -0.0591257)
(43.4691 0.216444 -0.593551)
(44.7186 -7.06591 -0.709541)
(44.0999 -9.64288 -0.581407)
(45.2376 -9.90942 -0.456361)
(47.5338 -10.945 -0.35881)