/*--------------------------------*- C++ -*----------------------------------*\
| =========                 |                                                 |
| \\      /  F ield         | OpenFOAM: The Open Source CFD Toolbox           |
|  \\    /   O peration     | Version:  2.3.0                                 |
|   \\  /    A nd           | Web:      www.OpenFOAM.org                      |
|    \\/     M anipulation  |                                                 |
\*---------------------------------------------------------------------------*/
FoamFile
{
    version     2.0;
    format      ascii;
    class       volScalarField;
    location    "0.01";
    object      alphaSgs;
}
// * * * * * * * * * * * * * * * * * * * * * * * * * * * * * * * * * * * * * //

dimensions      [1 -1 -1 0 0 0 0];

internalField   nonuniform List<scalar> 
5000
(
8.41572e-08
7.49631e-08
3.13255e-08
3.41092e-08
1.19773e-08
8.22499e-09
1.95504e-08
1.63021e-08
2.2151e-08
2.90278e-08
4.57942e-08
2.73886e-08
1.32907e-08
3.06645e-08
3.10801e-08
4.20063e-08
4.37339e-08
2.3136e-08
3.72909e-08
5.27406e-08
2.32792e-08
4.56904e-08
1.5987e-08
2.71297e-08
5.68824e-08
2.98334e-08
3.04583e-08
3.509e-08
2.12659e-08
2.80696e-08
2.26424e-08
6.73809e-09
1.45229e-08
7.1901e-09
2.21311e-08
1.26815e-08
2.1942e-08
2.94042e-08
3.00089e-08
3.10108e-08
4.42921e-08
3.42743e-08
5.91338e-09
1.9119e-08
2.00074e-08
1.56846e-08
1.41885e-08
2.70755e-08
3.32237e-08
3.00936e-08
4.39118e-08
4.33103e-08
3.61414e-08
2.5764e-08
5.40117e-08
5.48519e-08
2.20542e-08
2.60075e-08
4.83598e-08
5.45289e-08
3.87226e-08
4.90655e-08
3.71645e-08
3.12304e-08
3.10686e-08
2.04687e-08
2.13256e-08
2.02443e-08
2.0483e-08
2.20111e-08
1.62373e-08
9.52726e-09
1.65168e-08
5.89438e-08
8.14696e-08
3.01841e-09
3.61862e-09
1.25905e-08
3.66734e-08
2.65277e-08
1.76214e-08
5.65017e-08
2.07862e-08
1.25985e-08
4.82792e-09
6.44333e-09
9.30442e-09
1.28428e-08
2.03045e-08
2.70217e-08
3.54064e-08
1.12078e-07
2.35076e-08
8.26842e-09
8.27661e-09
4.29676e-09
1.86621e-09
9.17625e-10
7.57421e-10
1.16359e-10
4.49281e-07
2.02465e-07
1.35056e-07
1.13139e-07
8.69786e-08
4.89119e-08
3.5669e-08
8.42336e-08
3.42046e-08
4.75761e-08
7.16599e-08
6.23606e-08
2.89946e-08
2.37336e-08
4.98816e-08
6.62102e-08
4.67926e-08
2.63248e-08
3.35751e-08
3.63809e-08
3.60905e-08
7.69482e-08
5.48784e-09
3.95027e-08
8.09313e-08
1.42095e-07
8.97316e-09
5.40309e-08
6.42717e-08
7.28172e-08
7.90003e-08
7.83604e-08
3.71392e-08
5.4786e-08
7.11309e-08
3.51782e-08
5.76753e-08
7.69783e-08
5.88544e-08
5.05657e-08
3.30126e-08
4.92612e-08
3.53742e-08
4.02466e-08
3.81076e-08
3.53565e-08
5.06977e-08
5.34788e-09
5.3825e-08
4.97012e-08
2.92468e-08
2.46222e-08
4.57583e-08
7.30877e-08
8.63086e-08
8.7436e-08
6.48314e-08
7.19367e-08
9.22654e-08
1.20245e-07
8.86556e-08
1.0185e-07
1.03688e-07
1.05624e-07
1.05346e-07
7.41096e-08
4.69477e-08
4.47382e-08
5.29915e-08
5.22534e-08
5.17727e-08
2.74769e-08
6.18055e-08
1.53371e-07
2.31743e-07
2.72182e-08
2.82675e-08
1.65641e-08
3.58223e-08
5.08669e-08
5.5435e-08
9.80524e-08
8.62884e-08
2.80065e-08
2.34161e-08
3.01823e-08
2.86787e-08
3.04683e-08
4.53516e-08
5.33939e-08
2.89028e-07
1.17675e-07
1.18337e-07
3.16407e-08
1.91543e-08
1.27082e-08
5.86214e-09
2.37234e-09
2.19284e-09
3.1306e-10
2.15248e-07
1.20948e-07
9.87468e-08
3.31971e-08
5.9374e-08
3.52717e-08
4.60677e-08
1.16379e-07
1.04516e-07
1.18786e-07
1.18882e-07
1.03717e-07
1.15199e-07
1.16047e-07
4.76751e-08
2.34412e-08
1.89869e-08
5.0789e-08
1.17583e-08
1.13418e-07
1.40784e-07
8.03273e-08
4.54063e-08
5.83421e-08
4.96908e-08
1.3462e-07
1.0354e-07
1.03755e-07
7.50685e-08
9.48507e-08
7.03243e-08
9.21971e-08
8.87072e-08
1.08688e-07
1.24173e-07
6.33461e-08
1.14834e-07
1.47834e-07
2.32906e-07
2.6434e-07
2.78899e-07
2.92542e-07
2.69476e-07
2.00392e-07
1.67722e-07
1.37637e-07
1.24443e-07
4.78638e-08
8.17536e-08
5.71895e-08
2.16222e-08
3.59864e-08
3.68983e-08
8.51047e-08
1.27928e-07
3.05475e-07
2.40152e-07
2.5434e-07
2.10871e-07
1.53821e-07
7.53138e-08
6.93891e-08
7.30298e-08
1.38932e-07
1.5504e-07
1.51198e-07
7.43238e-08
5.35833e-08
4.37063e-08
3.7828e-08
5.89597e-08
7.28726e-08
1.24837e-07
2.64049e-07
3.82681e-07
9.58632e-08
6.15752e-08
2.71348e-08
4.36507e-08
4.55518e-08
5.7e-08
1.27789e-07
1.08135e-07
6.62262e-08
6.0271e-08
8.67655e-08
5.33341e-08
4.82584e-08
8.39754e-08
1.20189e-07
3.58691e-07
2.5559e-07
1.53681e-07
4.28667e-08
3.23162e-08
2.12377e-08
1.07119e-08
4.22155e-09
3.78563e-09
6.59783e-10
7.94174e-07
2.7852e-07
1.41336e-07
2.02182e-07
6.19883e-08
8.84351e-08
1.46732e-07
1.97953e-07
2.28287e-07
2.71347e-07
1.86602e-07
2.24704e-08
6.77114e-08
1.06999e-07
7.50584e-08
1.62559e-07
8.37631e-08
4.34009e-08
1.00959e-07
1.22019e-07
8.79365e-08
7.18977e-08
1.04889e-07
1.44901e-07
1.90948e-07
3.61051e-07
1.47889e-07
1.21127e-07
1.21698e-07
1.60387e-07
1.7285e-07
1.28853e-07
6.54963e-08
8.96947e-08
1.15924e-07
5.1643e-08
1.12344e-07
1.4294e-07
2.1701e-07
3.04475e-07
3.41646e-07
2.28922e-07
1.84531e-07
1.30327e-07
1.05246e-07
1.36914e-07
1.95057e-07
2.2278e-07
2.62816e-07
2.44906e-07
6.70535e-08
3.80038e-08
4.38396e-08
1.31537e-07
2.07936e-07
4.91126e-07
4.72647e-07
5.05432e-07
4.2828e-07
2.92048e-07
6.84808e-08
4.08022e-08
3.0328e-08
5.35371e-08
1.32308e-07
4.15057e-07
4.38626e-07
2.16323e-07
1.8499e-07
1.09773e-07
8.84703e-08
8.55739e-08
2.46585e-07
3.053e-07
5.77518e-07
4.1942e-07
8.55282e-08
2.61976e-08
2.22341e-08
2.60255e-08
3.79752e-08
6.77718e-08
7.14019e-08
7.39512e-08
7.61706e-08
1.08484e-07
8.71985e-08
6.06263e-08
1.11057e-07
1.51096e-07
1.13698e-07
6.6877e-07
1.82308e-07
5.99718e-08
4.8229e-08
2.98052e-08
1.60751e-08
6.18522e-09
5.44069e-09
1.29692e-09
6.31289e-07
2.58206e-07
1.82597e-07
1.75988e-07
9.83265e-08
9.95048e-08
8.92246e-08
1.01251e-07
2.36767e-07
4.40259e-08
8.02588e-08
2.05123e-07
2.78236e-07
2.20698e-07
9.18237e-08
4.11239e-08
8.28508e-08
8.98361e-08
3.00057e-08
1.55734e-07
1.95821e-07
2.47112e-07
6.78342e-08
9.60765e-08
1.87967e-07
3.20031e-07
2.04263e-07
2.33864e-07
1.85904e-07
2.41443e-07
2.67206e-07
2.05291e-07
6.82021e-08
9.09529e-08
1.21523e-07
1.24748e-07
1.94321e-07
2.72452e-07
3.27278e-07
3.66227e-07
2.93892e-07
1.57184e-07
5.77713e-08
4.63513e-08
6.16717e-08
9.11495e-08
1.02464e-07
1.9023e-07
3.47709e-07
4.59913e-07
3.91639e-07
2.0927e-07
7.83627e-08
9.1302e-08
2.26001e-07
4.227e-07
7.42009e-07
8.95972e-07
7.65718e-07
5.90381e-07
1.43807e-07
4.24462e-08
2.16345e-08
2.86892e-08
5.62548e-08
1.15876e-07
5.4178e-07
9.71211e-07
1.08817e-06
4.72279e-07
3.66628e-07
1.63896e-07
2.76739e-07
4.12426e-07
7.16672e-07
6.63047e-07
1.68852e-07
1.36862e-08
1.25763e-08
1.31801e-08
2.18274e-08
3.80079e-08
4.09291e-08
5.3148e-08
6.75e-08
1.07503e-07
8.69765e-08
7.38371e-08
1.45047e-07
1.55024e-07
1.12262e-07
9.77363e-07
1.42503e-07
6.76099e-08
6.29662e-08
3.81748e-08
2.06693e-08
8.38436e-09
7.32842e-09
2.23711e-09
3.64674e-07
2.75755e-07
2.12285e-07
4.04404e-07
3.73869e-07
3.1513e-07
2.71527e-07
2.33765e-07
2.94636e-07
3.18676e-07
3.95203e-07
5.29192e-07
4.95289e-07
2.40279e-07
1.75493e-07
2.07323e-07
1.64353e-07
1.32458e-07
1.7288e-07
1.9508e-07
2.44346e-07
2.60936e-07
3.03e-07
3.32494e-07
3.43246e-07
4.2774e-07
3.71371e-07
2.59474e-07
2.16367e-07
2.75017e-07
3.69464e-07
2.44418e-07
1.40637e-07
1.0021e-07
1.72238e-07
1.28176e-07
1.89504e-07
2.65366e-07
3.67938e-07
5.16145e-07
3.73566e-07
1.45738e-07
9.40127e-08
8.91202e-08
1.19971e-07
1.31355e-07
7.54053e-08
5.77017e-08
2.25791e-07
4.43896e-07
5.75628e-07
5.48394e-07
3.04736e-07
2.15529e-07
2.83996e-07
2.58428e-07
7.97337e-07
1.20306e-06
1.37753e-06
1.03737e-06
2.39204e-07
5.03972e-08
1.79478e-08
2.41062e-08
3.10508e-08
4.03337e-08
9.76227e-08
3.20727e-07
9.7543e-07
1.27224e-06
1.32431e-06
1.05555e-06
7.42779e-07
7.71753e-07
8.18684e-07
9.10115e-07
4.43585e-07
2.70472e-08
1.22076e-08
1.00637e-08
1.26677e-08
2.80824e-08
2.01134e-08
2.86734e-08
5.13489e-08
9.70196e-08
9.2217e-08
8.91603e-08
1.87907e-07
1.6884e-07
1.40157e-07
1.37577e-06
1.13156e-07
9.20353e-08
7.7127e-08
4.64842e-08
2.53162e-08
1.10829e-08
9.45518e-09
3.55278e-09
9.33638e-07
3.88047e-07
1.34809e-07
4.6347e-08
1.59584e-07
2.0804e-07
2.19484e-07
2.29986e-07
2.22844e-07
2.69971e-07
2.55423e-07
3.49281e-08
2.37802e-07
1.06061e-07
7.63413e-08
1.53295e-07
2.60088e-07
3.08744e-07
9.79002e-08
1.39627e-07
2.5264e-07
3.79978e-07
4.48839e-07
3.22911e-07
5.00559e-07
5.55851e-07
1.54217e-07
1.72554e-07
1.34253e-07
3.79669e-07
6.3878e-07
6.6414e-07
2.79655e-07
2.99915e-07
3.34648e-07
3.35999e-07
3.68255e-07
4.31407e-07
5.20168e-07
6.309e-07
4.59123e-07
1.38034e-07
9.2476e-08
7.88741e-08
1.00469e-07
1.11525e-07
1.1677e-07
4.97387e-08
8.443e-08
2.37985e-07
4.38934e-07
4.93633e-07
4.30465e-07
3.36626e-07
3.14871e-07
4.0282e-07
7.28241e-07
1.17186e-06
1.61178e-06
1.30201e-06
6.78312e-07
5.36299e-08
1.97931e-08
2.5126e-08
3.04067e-08
3.31718e-08
3.88826e-08
4.29564e-08
1.9909e-07
6.21145e-07
1.09536e-06
1.55226e-06
1.82656e-06
1.48232e-06
1.251e-06
1.19444e-06
6.89748e-07
5.92094e-08
2.21613e-08
1.32259e-08
1.68867e-08
3.60175e-08
1.50887e-08
2.19005e-08
5.33162e-08
9.02941e-08
9.1366e-08
1.10366e-07
2.45467e-07
1.59432e-07
1.51049e-07
1.06411e-06
1.39351e-07
1.1167e-07
8.98978e-08
5.44633e-08
3.01504e-08
1.37871e-08
1.19237e-08
5.41123e-09
8.16229e-07
8.59035e-08
4.68764e-07
5.99272e-07
2.02185e-07
4.7152e-07
3.90918e-07
6.26176e-07
9.71228e-07
6.34796e-08
3.23613e-07
4.50156e-07
3.84574e-07
3.4489e-07
3.6932e-07
4.54835e-07
1.30181e-07
1.48375e-07
1.5838e-07
1.34659e-07
2.12616e-07
7.42096e-07
1.0703e-06
4.79367e-07
4.58641e-07
5.53479e-07
3.96778e-07
1.19036e-07
6.50079e-08
9.78028e-08
2.09381e-07
1.25823e-06
9.8098e-07
4.81314e-07
2.14953e-06
1.26566e-06
9.15702e-07
6.03905e-07
6.24031e-07
8.44457e-07
6.15425e-07
2.00859e-07
6.44765e-08
4.49283e-08
6.34151e-08
8.59831e-08
9.65328e-08
7.33819e-08
3.67276e-08
4.74378e-08
5.26407e-08
1.5017e-07
1.89531e-07
1.71327e-07
1.57411e-07
1.54666e-07
3.46854e-07
7.48109e-07
1.75884e-06
1.60513e-06
1.15705e-06
2.27727e-08
1.36381e-08
1.89406e-08
2.91951e-08
2.87263e-08
2.88237e-08
3.7344e-08
1.93211e-07
3.50979e-07
5.29132e-07
8.72686e-07
1.82283e-06
1.90506e-06
1.71499e-06
1.53336e-06
1.11552e-06
9.77082e-08
3.93565e-08
1.87302e-08
1.9655e-08
3.8608e-08
1.60123e-08
3.3755e-08
6.60003e-08
9.81637e-08
1.03753e-07
1.42929e-07
3.59483e-07
5.29381e-07
1.37731e-07
9.80396e-07
2.06124e-07
1.28778e-07
1.01973e-07
6.29295e-08
3.53765e-08
1.6869e-08
1.47055e-08
6.79618e-09
4.82153e-07
1.718e-07
1.03701e-07
5.33597e-07
3.35406e-07
1.70745e-07
1.26708e-07
2.35348e-07
3.39613e-07
8.06459e-08
2.49471e-07
4.60912e-07
6.17269e-07
4.69695e-07
3.84099e-07
9.71369e-07
6.62361e-07
1.5349e-07
1.22125e-07
1.79402e-07
1.52456e-07
1.40815e-07
2.15934e-06
1.61748e-06
9.34844e-07
4.10874e-07
6.03924e-07
3.45556e-07
1.5183e-07
1.33738e-07
9.84736e-08
1.174e-07
7.12327e-07
1.00553e-06
1.7239e-06
2.29197e-06
2.33319e-06
2.16206e-06
8.76482e-07
1.14602e-06
8.05312e-07
3.85387e-07
9.26841e-08
6.19705e-08
6.1621e-08
7.78061e-08
1.16925e-07
8.41832e-08
2.30744e-08
1.14554e-08
2.44725e-08
2.66015e-08
3.73114e-08
5.95576e-08
8.03342e-08
1.1171e-07
2.11197e-07
2.07193e-07
1.073e-06
1.98746e-06
1.29866e-06
3.04436e-08
1.51969e-08
1.20692e-08
2.24279e-08
2.34404e-08
1.87878e-08
3.29629e-08
1.35558e-07
2.34109e-07
1.19563e-07
3.21256e-07
9.95599e-07
1.67264e-06
2.47987e-06
1.61628e-06
2.08395e-06
1.67959e-07
7.09726e-08
2.29307e-08
2.48438e-08
4.79549e-08
2.24288e-08
4.6489e-08
8.51151e-08
1.1356e-07
1.17017e-07
1.77878e-07
3.9852e-07
1.09587e-06
2.16785e-07
9.82403e-07
2.74529e-07
1.34523e-07
1.15368e-07
7.22142e-08
4.09025e-08
2.01819e-08
1.73296e-08
8.56155e-09
2.24167e-06
1.96083e-07
5.87652e-07
2.06037e-07
1.82081e-07
2.48804e-07
2.43514e-07
8.26421e-08
1.79972e-06
1.18205e-06
5.66432e-07
7.70956e-07
5.38047e-07
3.17537e-07
2.23058e-07
3.55018e-07
1.66538e-06
1.14578e-06
6.6263e-07
4.14964e-07
1.66123e-07
1.52185e-07
1.34102e-07
1.43334e-06
2.09712e-06
1.76635e-06
1.3917e-06
1.54791e-07
1.25805e-07
9.63054e-08
8.5706e-08
7.47403e-08
2.64994e-07
4.3399e-07
9.03417e-07
1.25828e-06
1.60845e-06
2.69385e-06
2.27152e-06
2.0575e-06
1.69745e-06
4.76938e-07
1.27122e-07
6.92796e-08
7.28218e-08
9.86838e-08
9.40388e-08
6.26485e-08
1.95192e-08
3.87573e-08
8.07761e-08
1.14644e-07
1.45201e-07
1.84736e-07
2.63857e-07
2.21974e-07
3.21825e-07
2.70337e-07
6.87064e-07
1.731e-06
1.22775e-06
7.67119e-08
5.15832e-09
8.69885e-09
1.89315e-08
1.9312e-08
1.56934e-08
1.16314e-08
1.51696e-07
2.39329e-07
1.27661e-07
1.57653e-07
4.12116e-07
1.39359e-06
2.2097e-06
1.94704e-06
3.09853e-06
2.67064e-07
1.16009e-07
2.93661e-08
3.278e-08
5.36813e-08
2.71462e-08
4.72629e-08
1.09254e-07
1.32431e-07
1.46731e-07
2.29232e-07
4.22508e-07
5.19431e-07
4.69054e-07
8.12114e-07
2.74559e-07
1.6566e-07
1.33037e-07
8.237e-08
4.64522e-08
2.33438e-08
1.98572e-08
9.45876e-09
3.10391e-07
9.92106e-07
1.28082e-06
1.46384e-06
1.00386e-06
8.32431e-07
5.07234e-07
5.89537e-07
5.81269e-07
1.33027e-06
1.58908e-06
1.49048e-06
5.22418e-07
3.25597e-07
3.16813e-07
3.76401e-07
5.47421e-07
8.40846e-07
6.50285e-07
7.36101e-07
3.58358e-07
3.9232e-07
3.52367e-07
1.29857e-06
6.62521e-07
1.42764e-06
1.26432e-06
3.72507e-07
1.5996e-07
9.71873e-08
9.2759e-08
9.36921e-08
1.30555e-07
2.93637e-07
1.60816e-07
4.32802e-07
1.15571e-06
1.26646e-06
2.32905e-06
2.15229e-06
2.21251e-06
4.19634e-07
1.35843e-07
7.61647e-08
7.34182e-08
8.79364e-08
1.30452e-07
1.42703e-08
6.71708e-08
1.50503e-07
2.2244e-07
2.71799e-07
2.66028e-07
3.90715e-07
6.64024e-07
6.11141e-07
6.37339e-07
5.64903e-07
7.9463e-07
1.51747e-06
1.09859e-06
1.69701e-07
1.33728e-09
7.6003e-09
1.60623e-08
1.62949e-08
1.25923e-08
1.94783e-08
6.29563e-08
1.73238e-07
1.594e-07
1.18769e-07
1.96488e-07
1.717e-07
1.63693e-06
1.60666e-06
3.08273e-06
6.10324e-07
1.11998e-07
3.16552e-08
4.0091e-08
6.20799e-08
3.71246e-08
4.72097e-08
1.31579e-07
1.5282e-07
1.78274e-07
2.84592e-07
5.01224e-07
4.68232e-07
5.11024e-07
6.38173e-07
2.75877e-07
1.94798e-07
1.45734e-07
9.20308e-08
5.19112e-08
2.6552e-08
2.22037e-08
1.10405e-08
7.96552e-07
4.05287e-07
5.79737e-07
5.8121e-07
4.91957e-07
4.49579e-07
3.42687e-07
6.12714e-07
6.31083e-07
8.52034e-07
1.245e-06
9.11596e-07
4.14787e-07
3.47548e-07
3.47389e-07
3.83817e-07
6.64251e-07
6.38227e-07
6.7487e-07
8.68688e-07
5.45871e-07
5.77597e-07
7.82032e-07
5.08784e-07
6.17648e-07
1.12863e-06
1.46814e-06
8.63742e-07
2.05833e-07
1.00323e-07
1.07332e-07
1.29174e-07
1.54633e-07
3.31337e-07
5.5542e-07
5.42869e-07
6.92465e-07
5.69564e-07
1.98229e-06
2.65754e-06
2.67117e-06
1.97766e-07
1.49378e-07
6.55492e-08
8.1777e-08
9.91961e-08
8.8611e-08
2.45966e-07
3.45389e-07
4.5653e-07
4.65733e-07
4.6367e-07
5.29547e-07
9.74966e-07
1.08975e-06
1.14394e-06
8.52309e-07
7.06725e-07
6.21676e-07
1.32246e-06
1.0336e-06
2.72113e-07
9.889e-09
1.10417e-08
1.76065e-08
1.84963e-08
2.14344e-08
2.25426e-08
3.13276e-08
1.96374e-08
1.2988e-07
7.70758e-08
1.42538e-07
2.12855e-07
6.22804e-07
1.85995e-06
1.31394e-06
1.10305e-06
9.16138e-08
3.31911e-08
4.81472e-08
6.82203e-08
4.65122e-08
5.75643e-08
1.5394e-07
1.74307e-07
2.28562e-07
3.46866e-07
6.77477e-07
1.3567e-07
2.01059e-06
7.06559e-07
2.97755e-07
2.26571e-07
1.53966e-07
1.01077e-07
5.71144e-08
2.9692e-08
2.46529e-08
1.3649e-08
7.11944e-09
1.82306e-07
1.33531e-07
3.11419e-08
1.46077e-07
1.35995e-07
3.90183e-07
4.5951e-07
5.60388e-07
5.19892e-07
6.10869e-07
5.82205e-07
4.60079e-07
2.04922e-07
3.74861e-07
4.7434e-07
6.61435e-07
3.91327e-07
5.16652e-07
4.11182e-07
4.71665e-07
7.1528e-07
7.94225e-07
9.58077e-07
1.10968e-06
1.53866e-06
1.20677e-06
8.62465e-07
2.45741e-07
1.36711e-07
1.74845e-07
1.73854e-07
2.81021e-07
5.16185e-07
4.85802e-07
7.46591e-07
7.14734e-07
8.82053e-07
1.16766e-06
2.04094e-06
1.64803e-06
7.02829e-07
1.9222e-07
1.00701e-07
9.32025e-08
1.0613e-07
2.98968e-07
5.02877e-07
6.66804e-07
6.51266e-07
6.2119e-07
6.19764e-07
9.39247e-07
1.34467e-06
1.31098e-06
1.24268e-06
9.48909e-07
9.99066e-07
5.93794e-07
1.1538e-06
8.43732e-07
2.52379e-07
1.77289e-08
1.71104e-08
2.3053e-08
3.39833e-08
2.75285e-08
3.25592e-08
3.34124e-08
3.42084e-08
1.12248e-07
1.72484e-07
1.51047e-07
1.95315e-07
3.92179e-07
2.07675e-06
1.18693e-06
1.5296e-06
1.67818e-07
4.17654e-08
5.89177e-08
8.20968e-08
9.42935e-08
7.21102e-08
1.74477e-07
1.94306e-07
2.76629e-07
3.95516e-07
7.04053e-07
1.3017e-07
2.65632e-06
8.11083e-07
3.19472e-07
2.47268e-07
1.63318e-07
1.09731e-07
6.24313e-08
3.34996e-08
2.75854e-08
1.68211e-08
3.68995e-07
2.71112e-08
2.40607e-07
1.93544e-07
1.3739e-07
1.86479e-07
2.16123e-07
2.97959e-07
2.85194e-07
4.5238e-07
1.11991e-07
1.54904e-07
1.85264e-07
2.62202e-07
3.46603e-07
3.34403e-07
2.51791e-07
1.20172e-07
2.3372e-07
9.20547e-08
3.84964e-07
7.91605e-07
7.07594e-07
9.21932e-07
1.04582e-06
1.67017e-06
1.0932e-06
5.82801e-07
2.58447e-07
1.77749e-07
1.84404e-07
2.90993e-07
3.87475e-07
6.02962e-07
6.84313e-07
8.87135e-07
7.55675e-07
1.02867e-06
1.1184e-06
1.6049e-06
1.37317e-06
6.89541e-07
2.13729e-07
1.22103e-07
1.27422e-07
3.28706e-07
6.23008e-07
6.61367e-07
7.70946e-07
7.18655e-07
7.82237e-07
5.89496e-07
9.42512e-07
1.04546e-06
1.18942e-06
1.17567e-06
1.0737e-06
1.05978e-06
1.22333e-06
1.07596e-06
6.74027e-07
1.5289e-07
2.60595e-08
2.4262e-08
4.14633e-08
5.90117e-08
2.78152e-08
9.97328e-08
2.32991e-07
2.99687e-07
3.07012e-07
1.92077e-07
1.31371e-07
2.09036e-07
4.40588e-07
2.64093e-06
1.82801e-06
2.20033e-06
2.80467e-07
6.44664e-08
7.64265e-08
7.99793e-08
1.05391e-07
8.07845e-08
1.97218e-07
2.12405e-07
3.47474e-07
4.20725e-07
6.76931e-07
1.398e-07
2.65633e-06
8.42824e-07
3.18138e-07
2.63326e-07
1.73818e-07
1.1866e-07
6.81397e-08
3.79269e-08
3.06273e-08
1.8606e-08
8.90456e-09
7.29546e-08
6.34222e-08
4.89247e-09
9.35805e-09
2.11055e-08
1.44491e-07
1.44553e-07
2.14053e-07
2.13598e-07
1.29196e-07
1.60007e-07
2.19421e-07
2.91557e-07
2.85193e-07
2.44453e-07
1.99745e-07
7.71784e-08
7.21783e-08
1.6038e-07
3.47919e-07
5.6516e-07
6.59611e-07
7.72968e-07
9.28e-07
6.88989e-07
8.05977e-07
3.84497e-07
2.61922e-07
2.01123e-07
2.59421e-07
4.88668e-07
4.13959e-07
5.75748e-07
6.17147e-07
1.09757e-06
8.12322e-07
7.68534e-07
1.18611e-06
1.42923e-06
8.94693e-07
5.92017e-07
2.28787e-07
1.3058e-07
2.15817e-07
4.15087e-07
5.90865e-07
7.42018e-07
6.37221e-07
4.94547e-07
4.26697e-07
3.40387e-07
8.81168e-07
7.74753e-07
1.39253e-06
1.10248e-06
1.00567e-06
1.20418e-06
1.45822e-06
1.07482e-06
5.76305e-07
1.35976e-07
1.50593e-08
4.19502e-08
7.43659e-08
6.00592e-08
9.08451e-08
3.35363e-07
4.20934e-07
3.61709e-07
2.08621e-07
8.40204e-08
1.00657e-07
1.78292e-07
5.04647e-07
2.05077e-06
2.12567e-06
2.67221e-06
3.9135e-07
9.67075e-08
8.94726e-08
1.10783e-07
6.24541e-08
8.22851e-08
2.15442e-07
2.5785e-07
4.04978e-07
4.75598e-07
8.23509e-07
1.8026e-07
2.65607e-06
7.96444e-07
3.32899e-07
2.83224e-07
1.85564e-07
1.27774e-07
7.4382e-08
4.22759e-08
3.36204e-08
2.13361e-08
1.16778e-07
8.74025e-08
6.4405e-08
9.56665e-08
1.25975e-07
1.13618e-07
1.07765e-07
1.28583e-07
1.65724e-07
1.78826e-07
1.77696e-07
1.96758e-07
2.60027e-07
2.65453e-07
1.87588e-07
1.72902e-07
1.28645e-07
4.53423e-08
2.5265e-08
4.94787e-08
2.81321e-07
4.24869e-07
5.08388e-07
6.82207e-07
7.01223e-07
6.51751e-07
5.77535e-07
3.69092e-07
1.81337e-07
2.97772e-07
5.79399e-07
4.9764e-07
4.15416e-07
4.72623e-07
7.65914e-07
1.03221e-06
8.97781e-07
8.55861e-07
9.77315e-07
1.18317e-06
9.80791e-07
5.15212e-07
2.35554e-07
1.42821e-07
3.06777e-07
3.93958e-07
5.68578e-07
4.70697e-07
3.37827e-07
2.67665e-07
1.43638e-07
3.42089e-07
6.53284e-07
7.97755e-07
1.31088e-06
1.21644e-06
8.75553e-07
1.01326e-06
9.4226e-07
7.77784e-07
3.72559e-07
8.02424e-08
2.77136e-08
6.77345e-08
8.08804e-08
1.0166e-07
3.68535e-07
5.51542e-07
4.32976e-07
1.91463e-07
4.57264e-08
1.64597e-08
6.78655e-08
2.12414e-07
8.33951e-07
2.10083e-06
2.33e-06
2.18115e-06
3.13784e-07
1.16025e-07
1.06623e-07
9.41572e-08
7.18909e-08
7.15168e-08
2.3465e-07
3.23119e-07
4.78231e-07
6.31287e-07
1.32342e-06
3.40494e-07
2.67019e-06
6.25435e-07
3.44161e-07
2.98611e-07
1.97898e-07
1.36431e-07
8.02432e-08
4.5687e-08
3.67285e-08
2.31423e-08
8.46968e-08
4.76379e-08
4.13514e-09
1.41362e-08
3.53653e-09
5.61065e-08
7.99608e-08
9.74051e-08
1.19728e-07
1.16591e-07
9.83141e-08
8.5585e-08
1.47323e-07
2.1318e-07
1.95459e-07
1.91959e-07
1.38803e-07
8.3636e-08
1.06881e-07
1.60819e-07
2.90687e-07
3.52954e-07
4.01698e-07
4.83175e-07
3.23244e-07
2.94202e-07
3.44925e-07
3.4345e-07
4.03366e-07
6.47726e-07
7.51073e-07
4.96289e-07
4.71672e-07
5.06723e-07
7.79161e-07
8.33403e-07
9.77874e-07
9.32243e-07
8.91397e-07
8.61389e-07
6.82959e-07
3.90184e-07
2.06565e-07
1.85539e-07
2.50955e-07
3.25828e-07
3.72887e-07
2.4973e-07
1.6966e-07
1.81747e-07
2.24997e-07
2.69003e-07
4.28212e-07
7.97201e-07
1.05824e-06
1.01415e-06
8.59358e-07
4.14573e-07
4.72012e-07
3.91828e-07
2.36873e-07
6.59009e-08
4.74525e-08
8.20949e-08
1.06053e-07
3.56302e-07
4.45621e-07
5.10663e-07
2.04999e-07
5.81365e-08
6.18607e-08
2.54239e-08
6.35167e-08
4.39998e-07
1.13902e-06
2.3786e-06
2.30495e-06
1.32788e-06
2.49186e-07
1.16777e-07
9.74201e-08
1.54063e-07
3.63357e-08
7.47766e-08
2.5601e-07
4.41386e-07
5.63681e-07
5.83313e-07
3.49543e-06
4.21133e-07
1.93233e-06
6.09877e-07
3.74409e-07
3.15155e-07
2.11163e-07
1.44253e-07
8.51063e-08
4.84956e-08
3.98277e-08
2.4795e-08
2.00212e-07
6.80665e-08
1.18084e-07
1.61948e-08
4.56689e-08
1.14006e-07
1.42176e-07
1.44684e-07
1.56625e-07
1.08729e-07
7.03893e-08
9.7266e-08
1.87235e-07
2.37431e-07
2.18244e-07
1.92381e-07
1.44804e-07
1.03508e-07
1.12294e-07
1.66476e-07
2.81497e-07
3.37424e-07
3.21221e-07
2.7549e-07
1.00571e-07
2.41413e-07
2.22175e-07
4.38489e-07
5.90471e-07
7.89338e-07
6.24883e-07
4.87134e-07
4.59639e-07
5.08919e-07
5.30467e-07
6.95267e-07
1.15577e-06
7.01584e-07
6.0446e-07
5.09435e-07
4.16587e-07
3.06029e-07
1.66216e-07
1.48098e-07
2.22939e-07
3.49994e-07
3.06701e-07
1.59948e-07
1.11674e-07
4.36922e-08
1.93828e-07
2.79221e-07
2.73242e-07
4.97987e-07
9.01379e-07
1.14196e-06
1.38742e-06
4.64632e-07
1.89157e-07
2.73032e-07
2.49039e-07
9.42532e-08
7.05886e-08
1.36712e-07
3.22211e-07
5.44684e-07
4.83854e-07
1.43118e-07
7.67339e-08
1.80729e-07
9.93213e-08
2.99424e-08
1.10494e-07
5.7292e-07
1.89232e-06
2.43773e-06
2.0012e-06
6.66584e-07
1.83104e-07
1.08378e-07
1.14593e-07
9.85743e-08
7.84714e-08
1.00366e-07
3.23795e-07
5.16681e-07
6.6008e-07
9.57669e-07
1.9485e-06
1.30682e-06
1.71448e-06
6.79731e-07
4.022e-07
3.29139e-07
2.24791e-07
1.5206e-07
8.92353e-08
5.15517e-08
4.37645e-08
2.54636e-08
2.29072e-07
6.43759e-08
1.4235e-07
1.90783e-07
1.78056e-07
2.21873e-07
2.14326e-07
2.08518e-07
1.81429e-07
1.46847e-07
1.31418e-07
1.51175e-07
2.20663e-07
2.79197e-07
2.51796e-07
2.23468e-07
1.8143e-07
1.58293e-07
1.8479e-07
2.35063e-07
3.13661e-07
3.35666e-07
2.86023e-07
2.08147e-07
2.01894e-07
2.58074e-07
4.54624e-07
6.27907e-07
7.50621e-07
6.61193e-07
6.10923e-07
4.85896e-07
4.45707e-07
4.66273e-07
4.28601e-07
6.19878e-07
9.56121e-07
7.15332e-07
3.94502e-07
2.72288e-07
2.63558e-07
2.51042e-07
1.37743e-07
2.19078e-07
3.92231e-07
3.99246e-07
2.63371e-07
1.55869e-07
1.28414e-07
1.93123e-07
2.46868e-07
3.0269e-07
2.23277e-07
2.28327e-07
3.73689e-07
8.10118e-07
1.0236e-06
6.30295e-07
5.55669e-07
3.04297e-07
2.44081e-07
8.373e-08
1.3554e-07
3.65106e-07
5.29208e-07
4.61477e-07
7.0885e-08
4.67792e-08
1.44015e-07
2.20152e-07
1.20682e-07
1.69007e-08
2.47293e-07
6.70927e-07
2.31283e-06
1.89847e-06
1.60166e-06
5.43227e-07
1.35448e-07
1.08991e-07
9.14396e-08
1.33696e-07
1.46484e-07
7.06905e-08
3.01899e-07
8.15324e-07
8.38078e-07
9.35197e-07
2.12058e-07
2.61459e-06
1.82863e-06
7.51862e-07
4.42987e-07
3.46591e-07
2.38853e-07
1.58509e-07
9.28826e-08
5.56062e-08
4.86296e-08
2.60895e-08
4.31967e-07
4.90176e-07
5.73419e-07
4.95657e-07
3.88409e-07
3.7697e-07
3.46404e-07
3.22829e-07
3.09085e-07
3.12905e-07
2.97296e-07
2.99129e-07
3.23871e-07
3.09533e-07
2.8028e-07
2.54141e-07
2.11066e-07
2.08803e-07
2.42086e-07
3.05585e-07
3.77197e-07
3.25226e-07
2.15974e-07
1.52178e-07
1.27165e-07
1.68705e-07
3.30749e-07
5.00647e-07
5.59133e-07
5.38933e-07
5.4038e-07
4.68997e-07
4.35923e-07
4.39742e-07
3.77864e-07
4.05605e-07
5.7281e-07
7.13503e-07
4.18425e-07
2.01159e-07
2.30425e-07
1.83386e-07
1.65157e-07
4.37649e-07
4.9512e-07
4.00369e-07
2.6014e-07
1.7142e-07
1.43722e-07
1.05571e-07
1.95841e-07
2.72283e-07
2.67743e-07
2.70522e-07
2.50874e-07
4.54692e-07
5.74529e-07
5.94009e-07
5.55293e-07
2.39023e-07
2.32301e-07
1.57595e-07
4.9117e-07
5.54046e-07
4.79531e-07
1.74406e-07
5.87135e-08
9.41659e-08
1.79508e-07
2.63732e-07
1.04094e-07
2.23491e-07
3.74548e-07
7.23681e-07
2.13987e-06
1.19102e-06
1.13489e-06
3.68938e-07
1.37108e-07
1.00058e-07
1.02316e-07
9.26011e-08
2.4469e-07
4.40077e-07
7.75721e-07
1.05038e-06
1.20153e-06
8.43391e-07
2.33132e-07
4.77358e-06
1.67902e-06
7.5632e-07
4.72255e-07
3.62817e-07
2.49925e-07
1.64368e-07
9.62787e-08
5.98537e-08
5.20188e-08
2.84985e-08
7.41583e-07
8.74302e-07
8.60246e-07
6.59752e-07
5.52957e-07
5.00101e-07
4.84065e-07
4.77067e-07
4.75227e-07
4.40728e-07
4.02715e-07
3.7169e-07
3.59582e-07
3.60371e-07
3.47011e-07
3.3147e-07
3.22061e-07
3.47928e-07
4.0559e-07
4.4399e-07
3.79555e-07
2.76604e-07
1.80785e-07
1.20673e-07
6.34384e-08
1.14089e-07
2.94525e-07
4.28462e-07
4.77868e-07
4.74758e-07
4.91288e-07
4.46793e-07
4.30102e-07
4.38445e-07
3.55158e-07
3.41297e-07
3.89691e-07
2.80638e-07
2.8335e-07
1.98062e-07
2.54856e-07
2.24065e-07
5.44438e-07
6.15036e-07
5.57406e-07
3.94852e-07
2.6684e-07
1.8099e-07
1.51958e-07
2.07403e-07
2.33976e-07
2.89345e-07
2.69284e-07
3.03932e-07
2.71339e-07
2.71081e-07
1.39526e-07
2.08759e-07
1.68224e-07
2.62506e-07
3.9805e-07
6.2714e-07
7.45673e-07
4.83969e-07
2.21797e-07
1.94429e-07
1.17905e-07
1.28645e-07
2.4003e-07
5.56695e-08
1.41314e-07
2.02491e-07
3.49529e-07
7.08187e-07
2.21697e-06
1.43694e-06
1.08675e-06
3.68726e-07
1.77886e-07
1.05106e-07
1.45027e-07
1.63749e-07
5.0265e-07
1.14572e-07
4.74649e-07
1.42293e-06
7.41307e-07
5.22011e-06
3.80537e-07
4.24623e-06
1.57413e-06
7.97973e-07
5.29955e-07
4.03381e-07
2.78439e-07
1.80346e-07
1.06409e-07
6.74913e-08
5.81955e-08
3.3486e-08
7.39112e-07
7.41619e-07
6.48859e-07
5.4161e-07
5.78387e-07
5.79058e-07
5.92312e-07
5.88124e-07
5.57611e-07
4.88259e-07
4.22284e-07
3.90418e-07
3.82152e-07
3.70305e-07
3.56569e-07
3.74269e-07
3.64185e-07
4.1008e-07
4.07624e-07
3.49883e-07
2.66277e-07
2.33797e-07
1.53264e-07
7.80388e-08
2.97118e-08
6.96382e-08
1.88817e-07
3.16634e-07
3.4867e-07
3.47826e-07
3.45617e-07
3.22566e-07
3.29817e-07
3.65007e-07
3.2413e-07
3.2096e-07
2.84809e-07
2.05747e-07
2.05153e-07
1.26282e-07
2.75578e-07
5.3933e-07
6.68474e-07
6.24435e-07
4.27692e-07
3.13829e-07
2.23327e-07
1.59784e-07
1.54207e-07
1.82063e-07
2.26447e-07
2.71637e-07
3.10828e-07
3.1877e-07
3.43442e-07
2.55188e-07
1.41811e-07
6.72971e-08
7.42444e-08
3.93102e-07
5.69472e-07
6.47686e-07
4.72789e-07
2.29238e-07
1.99949e-07
2.24434e-07
9.80677e-08
2.2234e-07
2.55187e-07
2.64245e-07
1.29325e-07
2.61938e-07
3.29912e-07
6.88365e-07
2.01538e-06
1.76964e-06
1.31448e-06
3.38415e-07
1.79195e-07
1.62288e-07
2.92072e-07
3.09521e-07
1.37772e-06
1.82527e-06
8.92532e-07
1.8593e-06
1.03757e-06
7.1724e-06
3.11653e-06
3.27855e-06
1.35047e-06
8.65337e-07
5.73111e-07
4.44597e-07
3.07475e-07
1.96298e-07
1.1721e-07
7.60155e-08
6.48012e-08
3.66295e-08
2.73481e-09
3.64702e-07
2.93054e-07
2.33999e-07
2.32161e-07
2.01358e-07
2.12695e-07
1.96555e-07
2.37928e-07
2.28116e-07
2.15823e-07
2.1513e-07
2.1858e-07
1.82709e-07
1.55677e-07
1.7039e-07
2.01395e-07
2.22645e-07
2.23393e-07
2.07376e-07
2.81992e-07
2.6375e-07
1.38393e-07
5.26039e-08
1.32224e-08
6.1563e-08
1.61601e-07
2.54667e-07
2.7258e-07
2.54367e-07
2.52628e-07
2.38561e-07
2.52714e-07
2.81914e-07
2.6748e-07
2.8537e-07
2.58522e-07
2.24874e-07
2.35368e-07
3.71321e-07
4.93618e-07
6.79797e-07
5.94365e-07
4.41546e-07
3.11852e-07
2.10246e-07
1.69854e-07
1.4431e-07
1.6356e-07
2.24049e-07
2.83351e-07
3.30273e-07
4.38069e-07
4.35882e-07
4.57232e-07
3.23284e-07
1.94711e-07
8.70135e-08
1.28121e-07
3.48797e-07
4.62991e-07
4.22402e-07
2.9702e-07
2.01856e-07
2.23535e-07
2.63244e-07
2.12364e-07
2.66322e-07
3.06512e-07
3.6841e-07
7.9585e-08
1.62211e-07
2.62881e-07
6.61909e-07
2.0516e-06
1.76335e-06
1.43403e-06
2.50135e-07
1.59497e-07
8.36674e-08
4.39811e-07
8.96382e-07
2.6812e-06
2.43889e-06
8.3491e-07
2.85614e-06
8.61194e-08
2.3684e-06
6.00785e-06
2.349e-06
1.27614e-06
8.94701e-07
6.17427e-07
4.88264e-07
3.35412e-07
2.15061e-07
1.31075e-07
8.65317e-08
7.20252e-08
3.91198e-08
7.81503e-08
3.60143e-07
2.95594e-07
2.69509e-07
2.48995e-07
2.39675e-07
2.14289e-07
2.05893e-07
1.9452e-07
1.61092e-07
1.1597e-07
4.45091e-08
4.1834e-08
8.87981e-08
8.94568e-08
1.45491e-07
8.54439e-08
1.26643e-07
1.5509e-07
3.02351e-07
3.75555e-07
2.05298e-07
7.31679e-08
3.06382e-08
1.70182e-08
3.53844e-08
9.23388e-08
1.53115e-07
1.88245e-07
1.95499e-07
1.97128e-07
1.84846e-07
2.01112e-07
2.20334e-07
2.29541e-07
2.38356e-07
2.28736e-07
2.09926e-07
2.45308e-07
3.56338e-07
4.43948e-07
3.9505e-07
3.68146e-07
2.51043e-07
1.88041e-07
1.36404e-07
1.44121e-07
1.48144e-07
1.85587e-07
2.45127e-07
3.1149e-07
4.78975e-07
5.24508e-07
6.58579e-07
5.39192e-07
3.0248e-07
1.13793e-07
1.20342e-07
2.75852e-07
4.17846e-07
4.16913e-07
3.79182e-07
2.81722e-07
2.38887e-07
3.14431e-07
3.98512e-07
3.11262e-07
3.01104e-07
2.49436e-07
1.36654e-07
1.46007e-07
2.32545e-07
3.65001e-07
7.79351e-07
2.05134e-06
1.97149e-06
1.39386e-06
2.39384e-07
1.19609e-07
1.4898e-07
6.09655e-07
1.06915e-06
2.30994e-06
6.28812e-07
2.07908e-06
3.98876e-06
7.50759e-06
6.06833e-06
4.26962e-06
1.86898e-06
1.25066e-06
9.36773e-07
6.63208e-07
5.31971e-07
3.63846e-07
2.35181e-07
1.46472e-07
9.67308e-08
8.24919e-08
4.64676e-08
2.91441e-07
2.73269e-07
7.8836e-08
2.86084e-07
2.60848e-07
2.45647e-07
2.08051e-07
1.64816e-07
1.16829e-07
5.64655e-08
5.76018e-08
3.52062e-08
3.47781e-08
1.36274e-07
1.12934e-07
1.32537e-07
9.19368e-08
1.36121e-07
2.43374e-07
4.31772e-07
2.33724e-07
1.50221e-07
4.6163e-08
2.32152e-08
2.00553e-08
3.99472e-08
7.65619e-08
1.19798e-07
1.48656e-07
1.60484e-07
1.78198e-07
1.75206e-07
1.92345e-07
2.00014e-07
2.05161e-07
2.30265e-07
2.01812e-07
1.6794e-07
1.72367e-07
2.35929e-07
2.34005e-07
2.14339e-07
2.09786e-07
1.84026e-07
1.39803e-07
6.79131e-08
1.46058e-07
1.82688e-07
2.65985e-07
3.50354e-07
4.70386e-07
6.51238e-07