/*--------------------------------*- C++ -*----------------------------------*\
| =========                 |                                                 |
| \\      /  F ield         | OpenFOAM: The Open Source CFD Toolbox           |
|  \\    /   O peration     | Version:  2.3.0                                 |
|   \\  /    A nd           | Web:      www.OpenFOAM.org                      |
|    \\/     M anipulation  |                                                 |
\*---------------------------------------------------------------------------*/
FoamFile
{
    version     2.0;
    format      ascii;
    class       volScalarField;
    location    "0.01";
    object      p;
}
// * * * * * * * * * * * * * * * * * * * * * * * * * * * * * * * * * * * * * //

dimensions      [1 -1 -2 0 0 0 0];

internalField   nonuniform List<scalar> 
5000
(
100858
100887
100555
100330
100200
100057
99937.9
99830.7
99743.5
99662.3
99611.5
99599.5
99625.1
99631.1
99642.7
99615.7
99579.3
99539.1
99480.4
99422.8
99329.5
99289.5
99176.5
99213.7
99246.2
99310.7
99400.7
99499.8
99554.6
99605.9
99646.8
99648.5
99680.3
99704
99722.8
99628.6
99628.4
99606.3
99608.9
99637.9
99649.2
99669.7
99676.5
99697
99710.7
99720.5
99749.5
99765.5
99819.1
99862.1
99914.2
99935.1
99969.2
99968.1
99942.1
99941.5
99838.9
99840.9
99847.9
99936.8
99887.4
99892.5
99871.6
99864.8
99850.7
99835.1
99795.4
99788.6
99796.8
99801.5
99827.1
99844.7
99844.9
99878.3
99961.2
100120
100214
100161
100044
100007
99985
99987.8
99997.4
100046
100070
100112
100137
100187
100269
100257
100275
100536
100208
100164
100129
100097
100066
100040
100021
100006
101330
100901
100549
100337
100197
100058
99938.6
99832.7
99745.2
99659.6
99612.4
99599.2
99619.6
99633.1
99638.8
99622.8
99578.6
99535.7
99477.6
99425.1
99332.5
99288.5
99179.9
99215.9
99245
99314.1
99392.6
99504.6
99554.8
99605.2
99646.9
99656.3
99677.5
99704
99722.2
99623.2
99625.3
99604.8
99607.8
99639.1
99650
99671
99674.9
99697.1
99711.5
99720.6
99753.8
99763.9
99818.9
99860.9
99913.8
99935.2
99968
99964.5
99940.4
99939.3
99834
99839.6
99847.9
99936.8
99892.3
99891.1
99874.7
99866.1
99850.7
99835.2
99797.9
99789.4
99801.7
99804
99828.6
99846.8
99850.5
99879.2
99965.2
100116
100217
100156
100048
100009
99987.9
99992.8
100014
100046
100070
100112
100138
100186
100270
100255
100293
100497
100208
100163
100129
100096
100066
100040
100021
100006
100865
100763
100476
100301
100176
100045
99927.9
99823.6
99736.5
99653.5
99606.6
99590
99606.1
99625.6
99625
99610.1
99562.9
99528.7
99467.1
99424.8
99335.7
99289.9
99186.4
99222.2
99247.2
99314
99380.9
99510.9
99549.4
99603.7
99644.4
99655.3
99674.8
99698.7
99713.7
99613.3
99617.8
99599.5
99605.9
99640.3
99648.6
99673.4
99680.2
99693.2
99713.6
99721.6
99755
99765.2
99817.3
99858.4
99905.4
99925.9
99957.8
99951.6
99931.4
99927.5
99826.1
99834.5
99846.5
99932.3
99894.6
99880.5
99872.1
99863.2
99849.5
99833.1
99802.1
99792.3
99805.4
99804.1
99830.6
99848.6
99851.1
99880
99966.2
100118
100221
100148
100047
100011
99990.1
99995.4
100006
100045
100072
100113
100142
100191
100264
100254
100300
100410
100211
100160
100128
100096
100066
100040
100021
100006
100971
100698
100423
100284
100173
100038
99928.5
99831.9
99735.5
99643.1
99599.7
99575.4
99599.1
99618.8
99624.3
99601.6
99551.9
99517.2
99455.6
99419.2
99337.1
99288.3
99198.9
99225.1
99247.1
99314
99381.4
99502.8
99542.8
99602.3
99643.9
99655
99668.8
99691.3
99697.8
99604.4
99609.2
99592.2
99600.7
99642.4
99648.1
99678.1
99679
99692
99715
99724.1
99753
99773.3
99813.4
99853.8
99895.6
99919.2
99948.5
99941.5
99924.9
99899.2
99823.9
99825.5
99841.1
99925.5
99898.4
99874.9
99875.8
99862.8
99850.8
99831.6
99804.5
99792.7
99813.3
99806.5
99833.7
99846.1
99860.9
99879.9
99968.9
100117
100226
100137
100047
100011
99992.8
99994.3
100009
100044
100071
100115
100148
100193
100268
100253
100317
100330
100216
100157
100128
100096
100066
100040
100021
100006
100818
100566
100349
100225
100123
100007
99905.4
99812
99718.4
99624.9
99571.2
99543.2
99587.7
99613.5
99598.1
99582.5
99540.2
99503.4
99446.8
99416
99343.3
99294.8
99219.9
99227.8
99250.3
99315
99370.4
99496.8
99537.5
99600.5
99639.8
99653.9
99663
99680.9
99680.9
99589.1
99595.7
99581.5
99595.1
99642.3
99645.9
99682.8
99677.1
99694.9
99715.7
99732.1
99749.8
99779.4
99810.3
99846.9
99883
99907.8
99931.6
99920.6
99911
99878.8
99834.1
99814.3
99829.2
99915.7
99899.7
99865.4
99869.3
99864.3
99842.4
99834.8
99807.5
99799.7
99822.2
99807.9
99834.9
99839.7
99876.6
99878.2
99969.5
100112
100231
100124
100047
100012
99995.1
99994.2
99998.9
100044
100069
100119
100154
100192
100267
100251
100384
100258
100216
100153
100127
100095
100066
100040
100021
100006
100309
100372
100284
100196
100115
100009
99898.6
99805.3
99699.5
99612.5
99558.1
99530.1
99592.9
99599.6
99584.4
99572.1
99519.4
99484.3
99432.6
99406.8
99348.7
99293.1
99252.7
99226.8
99254
99314.9
99376.1
99482.2
99528
99597
99638.3
99651.2
99656.1
99670.2
99661.6
99573.5
99583.9
99567.3
99581.1
99643.7
99646.9
99683.3
99675
99696.2
99718.1
99734.8
99752.5
99778.5
99807.4
99841.2
99871.3
99902.1
99918.7
99906.6
99904.7
99850.8
99849.6
99805.3
99815.4
99906.6
99898.4
99857.6
99867.6
99865.1
99843.2
99834.5
99809.9
99808.8
99828.8
99812.3
99843.6
99836.4
99890.3
99876.9
99958
100104
100236
100110
100047
100012
99997.7
99993.3
99996.1
100041
100067
100121
100160
100196
100268
100216
100420
100194
100215
100150
100126
100095
100066
100040
100021
100006
100204
100253
100180
100113
100040
99957.1
99856.3
99771.1
99671.4
99583
99523.7
99493.8
99577
99565.6
99562.1
99552.2
99493.2
99472
99435.9
99392.5
99360.4
99298.4
99303.3
99207.2
99255.6
99311.9
99374.3
99470.9
99524
99596.6
99628.3
99646.8
99650.4
99656.8
99637.6
99554.2
99568.1
99548.4
99573.3
99643.7
99644.5
99682.9
99673.1
99699.3
99719.2
99735
99754.4
99775.1
99802.9
99835.8
99863.2
99891.2
99901.2
99892.5
99883.9
99840
99851
99787.5
99796.7
99880.7
99903.1
99845.4
99865.4
99864.4
99842
99836.8
99817.5
99808.4
99835.4
99819.3
99839.5
99851.3
99898.6
99873.3
99952.7
100099
100240
100094
100047
100011
100000
99993.1
99998.2
100035
100066
100125
100166
100196
100272
100206
100468
100121
100209
100147
100125
100094
100065
100040
100021
100006
100395
100290
100171
100115
100018
99957.7
99850.6
99744.3
99684.2
99515.6
99480.8
99473.4
99550.8
99550.6
99542.4
99530.2
99459.6
99443.7
99426.3
99377.6
99372.7
99292.6
99330
99214.6
99253.1
99308.4
99384.2
99445.2
99526.5
99600.5
99639.6
99640.2
99643.6
99644.9
99619.6
99535.2
99560.6
99526.9
99550.4
99637.1
99642.5
99682
99669.7
99701.5
99722.8
99737.6
99753.6
99773.7
99798.3
99826.6
99858.5
99880.2
99893.4
99885.7
99876.3
99841.5
99842.6
99780.4
99793.9
99843.2
99923.3
99830.5
99865.7
99864.7
99843
99837.5
99822.7
99814.4
99841.6
99823.4
99842
99854.4
99897.9
99880
99932.8
100092
100245
100070
100047
100011
100002
99992.6
99999.7
100030
100065
100128
100170
100199
100273
100173
100516
100071
100201
100145
100123
100094
100065
100040
100021
100006
100682
100267
100108
100026
99941.4
99869.9
99785.2
99672
99614.4
99493.9
99440.1
99454.5
99518.3
99516.2
99516.7
99487.4
99437.6
99433.8
99453.9
99347.3
99411.3
99300.1
99347.7
99229
99258.8
99288.6
99401.6
99433.6
99517
99591.9
99631.7
99634.1
99633
99627.2
99578
99511.1
99533.4
99494
99533.7
99626.3
99632.1
99678.5
99667.5
99702.4
99722.9
99738.9
99754.8
99771.3
99793.9
99821.1
99848.2
99872.6
99886.7
99877.2
99867.6
99837.5
99830.4
99779.7
99790
99814.6
99949.9
99798.8
99875.5
99865.9
99845.4
99843
99826.7
99819.9
99847.7
99826.6
99844.5
99857
99892.9
99905.8
99903.5
100100
100251
100039
100046
100009
100005
99992.3
100002
100024
100064
100131
100174
100201
100270
100123
100543
100065
100193
100143
100122
100093
100065
100040
100021
100006
100815
100198
100081
100000
99917.5
99829.1
99795.5
99662.2
99558.9
99469.7
99397.2
99441.4
99497
99486.4
99500.4
99466.3
99433.6
99389.6
99460.1
99319.3
99417.5
99355.9
99325.1
99267.8
99241.8
99281.2
99415.5
99434.9
99510.9
99585.4
99627.2
99632.2
99627.9
99627.2
99579.9
99550.3
99518.7
99445.1
99518.4
99615.6
99629.6
99673.7
99663.6
99703.2
99727.1
99741.7
99751.6
99768.4
99788.1
99818.8
99841.3
99866.6
99882.6
99870.5
99862.5
99831.9
99814.8
99783.9
99786.5
99810
99938
99787.7
99884.6
99867
99850.7
99848
99831.7
99825.7
99851
99831.6
99840
99859.5
99890.3
99913
99925.4
100101
100266
99995.5
100047
100006
100007
99992.2
100005
100017
100062
100133
100178
100205
100267
100057
100537
100085
100187
100142
100121
100092
100065
100040
100021
100006
99981.2
100016
99932.3
99877.9
99795.2
99759.4
99712.4
99647.8
99580.2
99491.2
99382.4
99438.5
99478.1
99432.7
99485.2
99466.9
99458.9
99455.1
99434.2
99338
99417.4
99385
99337.8
99327.7
99228.4
99253.8
99497.9
99394.4
99516.1
99572.7
99616.9
99642
99628.4
99626.5
99586.7
99548.1
99541.8
99453
99452.9
99605.3
99628.6
99658.9
99663.2
99703.1
99726.7
99743
99754.1
99764.3
99785.3
99812.7
99835.1
99858.8
99877.3
99864.7
99857.6
99825.5
99803.6
99787.2
99783.3
99801.2
99911.4
99795.1
99889.4
99869
99856.7
99854.9
99835.4
99830.6
99841.3
99831
99840.9
99861.7
99896.9
99923
99949
100201
100287
99949.7
100047
100004
100009
99991.8
100009
100010
100061
100135
100180
100210
100267
100039
100494
100109
100182
100142
100120
100091
100064
100040
100021
100006
100045
99992.9
99924.9
99857.8
99777.6
99746.8
99686.3
99640.9
99576.7
99528.9
99499.2
99442.4
99446.2
99431.2
99477.7
99458.9
99446.1
99435.2
99513.2
99351.3
99420.5
99406.6
99364.4
99336.7
99260.7
99258.2
99444
99384.2
99524.6
99557.7
99614.3
99634.7
99628.4
99624.5
99590.9
99552.2
99551.6
99467.8
99434.3
99511.8
99667.3
99627.8
99670.1
99702.1
99731.4
99745.1
99748.5
99760.5
99783.1
99807.7
99833.5
99852.2
99875.5
99857.4
99849.2
99824.3
99798
99794.6
99771.2
99789.8
99903.7
99804.1
99882.1
99870
99864
99860.8
99840.5
99831.1
99836.4
99832
99844.1
99859.8
99897.8
99919.8
99970.9
100131
100224
99907.2
100046
100002
100012
99990.7
100012
100002
100059
100137
100180
100215
100270
100061
100420
100135
100177
100142
100118
100090
100064
100040
100021
100006
99957.7
99915.8
99874.6
99806
99758.8
99728.4
99668.2
99628
99573.2
99524.9
99492.8
99434.8
99442.4
99438.3
99467
99450.2
99446.1
99431.9
99440.3
99382.4
99416
99418.6
99359.9
99344.6
99258.4
99269.4
99422.3
99399.6
99514
99548
99592.4
99634.1
99631.6
99627.4
99592
99565.4
99550.2
99491
99425
99502.5
99673
99617.1
99677.8
99702.7
99731.2
99746.1
99747.1
99760.9
99784.3
99800.6
99827.2
99841.4
99876.7
99843.5
99844.9
99812.3
99793
99791.5
99772.1
99788.1
99891.6
99810.3
99872.7
99873
99868.2
99864.7
99840.7
99832.5
99832.8
99831.2
99841.9
99864.2
99896.1
99921.9
99961.5
100052
100136
99890.6
100039
100003
100015
99991.4
100019
99992.8
100056
100137
100178
100218
100271
100093
100347
100155
100173
100142
100117
100089
100063
100040
100021
100006
99896.8
99871.5
99833.8
99785.8
99737.2
99699.4
99651.1
99609.9
99556.7
99517.8
99486.6
99447.4
99449.7
99442.8
99436.8
99443.5
99433.3
99425.7
99429.1
99392.9
99413.2
99425.3
99369.4
99366.6
99274
99307.8
99405.2
99427.2
99493.9
99535.6
99580.7
99628.8
99631
99627.6
99582.2
99575.1
99540.9
99480.5
99449.4
99506.4
99639.4
99617.5
99683.4
99703.3
99733.6
99750.2
99756.5
99760
99777.2
99798.3
99824.6
99836.5
99864.4
99831.1
99836
99807.5
99789.1
99770.5
99794.8
99788.8
99878.1
99817
99865.4
99874.2
99872.3
99870.5
99845.1
99833.5
99830.2
99832.2
99841.6
99864
99894.2
99923.7
99954.5
100038
100069
99899.4
100032
100004
100019
99990.4
100020
99987.2
100054
100137
100175
100220
100267
100137
100290
100168
100168
100142
100115
100088
100062
100039
100021
100006
99840.7
99816.6
99784.4
99743.5
99705.8
99668
99629.8
99586.8
99545.7
99505.6
99475.6
99443.4
99439.2
99432.9
99432.5
99436.1
99428.4
99419.5
99416.3
99399.1
99413.8
99423.1
99379.5
99386.3
99330.5
99314.5
99407.6
99430.2
99493.3
99546.5
99589.3
99618.1
99631.1
99631.4
99583.4
99569.4
99531.2
99463.2
99473.3
99511.9
99626.3
99623
99692
99704.2
99741.4
99747.3
99753.3
99760.4
99773.5
99797.8
99819
99835.4
99853.4
99823.1
99825.5
99801.1
99784.4
99769.1
99797.4
99801.5
99865.3
99826.6
99860.8
99875.9
99881.8
99880
99850.6
99832.1
99828.8
99832.1
99842.1
99862.8
99890.3
99922.3
99951.7
100029
100026
99922.3
100029
100006
100023
99991.8
100013
99987.1
100050
100136
100170
100220
100249
100171
100240
100175
100164
100141
100113
100087
100062
100039
100021
100006
99806.7
99780.8
99752.8
99718.1
99682.4
99646.1
99610.8
99570.5
99532.5
99497.2
99469.1
99444.9
99436.9
99432.7
99427.3
99427.3
99420.2
99413.5
99409.7
99398.8
99411.8
99414.3
99389.6
99380.2
99351.2
99339.8
99404.5
99443.9
99507.1
99548.4
99590.1
99613.8
99628.2
99629.5
99583.8
99560.9
99528.2
99478.4
99482.6
99517.2
99615.9
99636.9
99697.2
99707.9
99735.2
99746
99755
99760.1
99775.3
99796.2
99813.6
99833.1
99844.5
99827.8
99804.2
99804.2
99783.2
99782.6
99793.1
99812.6
99853.4
99834.7
99855.5
99876.9
99891.8
99889
99852.1
99836.5
99829.1
99833.4
99839.6
99868
99883.6
99921.3
99948.5
100019
100016
99939.6
100026
100007
100027
99992.1
100006
99988.1
100042
100132
100162
100222
100242
100217
100193
100177
100159
100140
100111
100085
100061
100039
100021
100006
99768.1
99743.5
99716.8
99686.2
99654.7
99622.3
99589.2
99554.3
99519.7
99486.9
99460.8
99440.2
99431.4
99428.1
99423
99422
99416
99410.4
99406.1
99400.5
99409.4
99409
99397.4
99381.7
99371.3
99368.5
99424.1
99458.7
99518.2
99546.5
99592.3
99612.4
99628.4
99629.6
99588.6
99564.4
99526.8
99494.9
99502.2
99532.2
99609
99647.1
99703.3
99714.8
99739.6
99745.9
99753.7
99760.7
99775.3
99794.6
99811.5
99830.2
99837.9
99828.3
99803.6
99787
99788.6
99783.2
99799.6
99821.3
99847.7
99841.3
99857.2
99873.7
99903.1
99892.5
99851.3
99841.3
99832.7
99832.9
99838.3
99865.7
99878.1
99919.8
99946.6
100010
99996.2
99957.4
100019
100010
100030
99993.8
100000
99989.8
100035
100130
100155
100226
100233
100273
100155
100177
100155
100139
100109
100084
100060
100039
100021
100006
99744
99714.6
99689.1
99661.8
99632.7
99603.5
99572.3
99540.3
99509.1
99479.5
99456
99438.1
99428.8
99424.6
99419.1
99416.7
99411.5
99407
99403
99400
99404.3
99407.5
99399.8
99390.9
99384.3
99387.8
99431.9
99468.3
99518.4
99553.1
99593.6
99611
99626.3
99629.5
99593.6
99565.1
99509
99511.9
99522.5
99550.4
99611.5
99654.6
99711.7
99729.8
99732.5
99744.5
99752.5
99760.1
99776
99792.7
99807.5
99826.9
99831.3
99828.2
99808.5
99792.4
99782.8
99792.5
99802.1
99827.3
99846
99850.4
99857.6
99874.3
99907.7
99896.4
99852.9
99844.4
99832.8
99833.1
99836.4
99861.8
99876.6
99917.6
99946.5
100009
99983.8
99976.3
100013
100013
100035
99992.8
99995.3
99991.4
100029
100126
100140
100232
100179
100280
100141
100176
100151
100137
100106
100082
100059
100038
100021
100006
99712.8
99683.2
99659.1
99635.1
99609
99582.2
99554.1
99525.5
99497.1
99470.8
99449.6
99433.3
99424.4
99420.4
99415.3
99413
99408.3
99404.8
99401.8
99400.1
99403
99405.1
99400.5
99394.8
99394.3
99402.8
99442.8
99479.1
99521.5
99559.2
99593.9
99610.8
99623.9
99626.6
99595.4
99577.4
99539.8
99528.2
99543.8
99566.1
99612.8
99664.7
99708.7
99733.2
99739.4
99743.3
99751.2
99759.9
99774.8
99792
99806.3
99823.5
99826.4
99825.1
99812.6
99796.4
99783.9
99800.8
99806.9
99833.1
99846.8
99855.3
99862
99877.5
99900.6
99886
99854.6
99846.5
99832.3
99831.8
99834.1
99858.9
99873.4
99914.4
99939
100014
99975.3
99992.2
100009
100015
100039
99994.5
99987.1
99990.5
100015
100126
100129
100224
100176
100245
100148
100174
100148
100134
100103
100080
100058
100038
100021
100006
99670.8
99659.7
99639.7
99614.2
99588.3
99562.5
99537
99511.4
99486.5
99463.2
99444
99429.2
99420.6
99416
99411.5
99409.2
99405
99402.6
99400.3
99399.6
99402.1
99404.3
99402.1
99401.4
99407
99418.5
99451.1
99487.2
99526.1
99561.8
99593.2
99609.8
99621.5
99624.3
99598.4
99592.5
99554.4
99548.2
99556.6
99587
99616.6
99667.2
99697.8
99735.2
99739.8
99740.2
99749.5
99759.3
99774.5
99790
99803.8
99819
99823.9
99825.5
99812.5
99802.2
99791
99808.5
99816.4
99837.9
99850
99861.9
99868.3
99879.9
99886.2
99882.5
99854.4
99846.6
99832.8
99833
99831.7
99856.7
99872.2
99909.8
99931.1
100008
99970
100008
100007
100016
100045
99995.6
99984.4
99997
100007
100122
100126
100216
100181
100217
100152
100171
100145
100131
100100
100078
100057
100038
100021
100006
99657.3
99636
99611.1
99584.4
99561.1
99539.3
99517.3
99495.2
99473.1
99452.7
99435.7
99422.8
99415.1
99411.1
99407.4
99405.3
99402.4
99400.7
99399.6
99399.9
99402.5
99405.2
99406.2
99408.8
99417.2
99432.9
99462.7
99496.3
99531.4
99564.4
99592.9
99608.7
99619.2
99622.6
99602.5
99594.2
99570.6
99568.8
99573.9
99594.6
99624.1
99660.2
99701.8
99726.2
99733.2
99737.6
99747
99758.5
99773.4
99789.2
99802.8
99816.5
99821.7
99824.9
99813.7
99808.3
99797.4
99816.8
99824.2
99841.1
99850.9
99857.8
99859.1
99875.7
99883.1
99876.4
99851.9
99846.6
99833.5
99829.8
99831.5
99853
99870.1
99904.5
99926.6
100010
99962.6
100025
100002
100018
100052
99991.4
99982.3
99982.9
99979.1
100115
100116
100209
100223
100192
100153
100166
100141
100127
100097
100076
100056
100037
100021
100006
99575.1
99566.1
99550.5
99536
99520.4
99503.9
99486.5
99468.5
99451
99435.7
99422.3
99412.3
99406.1
99402.9
99400.4
99399.6
99398.2
99398.3
99398.7
99401.4
99404.5
99408.6
99411.3
99416.8
99427.7
99444.7
99472
99504.1
99535.9
99566.1
99591.3
99606.2
99616.2
99620.2
99605.7
99599.5
99581.9
99579.9
99583.6
99601.5
99625.3
99656
99693.1
99714
99724.8
99734.2
99744.1
99757.2
99772.3
99787.1
99800.6
99813.5
99820.5
99821.7
99817.7
99813.3
99806.3
99822.8
99829
99842.9
99851.4
99860.5
99863.3
99877.2
99878.7
99871.7
99853
99846.7
99831.9
99829.6
99829
99850.5
99868.7
99898.8
99920
99992.5
99959.5
100031
99999
100016
100058
99988.7
99987.3
99987
99963.3
100113
100108
100211
100236
100185
100146
100162
100137
100123
100094
100074
100054
100037
100021
100006
99501
99496
99487
99477.6
99466.4
99454.8
99442.9
99431.4
99420.4
99411.3
99403.5
99397.4
99394.1
99393.2
99393.1
99394
99395
99396.7
99399.9
99403.4
99408.4
99412.7
99418.3
99425.9
99439.4
99457.5
99483.1
99512.5
99541.3
99567.9
99590.2
99604
99613.7
99617.5
99607.9
99604.4
99590.6
99590.2
99593.7
99610.2
99628.6
99657.2
99684.9
99704.6
99718.7
99730.1
99742.1
99755.8
99770.8
99786
99799.2
99811.7
99819.3
99820.8
99820.5
99818.6
99816.8
99828
99834.7
99848.3
99854.3
99861.3
99866.8
99875.8
99876.6
99867.2
99851.9
99845.6
99831
99832.7
99823.8
99846.6
99866.3
99892.4
99917.4
99973.1
99959.5
100026
99996.7
100016
100064
99981.8
100002
99940.2
99939
100089
100105
100212
100214
100180
100140
100156
100133
100118
100090
100072
100053
100036
100021
100006
99441.1
99436.3
99430.3
99423.4
99415.7
99408
99400.9
99395
99390.2
99387.4
99385.1
99384.1
99384
99385.8
99387.3
99389.9
99392.5
99396.1
99400.6
99406.3
99411.6
99418.7
99427.7
99438.8
99452.8
99471.3
99494.2
99520.5
99545.8
99569
99588.5
99601.1
99610.6
99613.8
99609.8
99606.4
99598.3
99597.9
99601.9
99614.6
99630.9
99654
99678.9
99697.2
99712.6
99725.6
99739.7
99754.1
99768.9
99783.8
99797
99810.2
99815.9
99821.6
99822.8
99824.5
99824.6
99834.4
99839.8
99850.7
99856.2
99863.4
99868.9
99873.6
99873.8
99862.8
99851.9
99843.4
99828.5
99825.1
99824.2
99843
99864.4
99887.8
99913.3
99957.2
99959
100020
99995.5
100012
100069
99977
100005
99935.4
99924.2
100109
100024
100232
100190
100170
100134
100151
100128
100113
100087
100069
100052
100036
100021
100006
99384.7
99382.6
99379.3
99375.3
99370.8
99366.9
99364.2
99363.5
99364.4
99367.7
99370.5
99373
99375.2
99379
99382.4
99386.8
99391.1
99396.5
99402.9
99409.2
99417.7
99428.8
99440
99452.5
99467.8
99485.7
99506.2
99528.6
99550.5
99570.2
99587.3
99598.7
99607.8
99611
99609.8
99608.2
99603.1
99603.8
99608
99619.2
99633.2
99652.7
99674
99691.9
99707.9
99722.3
99737.1
99752.1
99767.4
99782.2
99796.1
99807.7
99815.7
99821.8
99825.3
99829
99831.9
99839.4
99844.8
99854.6
99858.8
99863.5
99869.4
99872.3
99871.6
99857.6
99848.9
99841.8
99826.3
99820.6
99823.3
99837.7
99860.5
99881.7
99910.1
99944.3
99961.1
100011
99996.1
100012
100070
99988.7
100032
100008
99987.7
100080
100256
100218
100172
100161
100130
100145
100122
100107
100082
100066
100050
100036
100021
100006
99339.6
99338.4
99336.8
99334.9
99333.3
99332.7
99333.9
99337.7
99343.7
99352.3
99359.2
99364.6
99369
99374.8
99379.7
99385.6
99390.8
99397.8
99404.8
99413.7
99426.2
99438.8
99451.3
99465.7
99481.1
99498.3
99516.7
99535.7
99554.2
99571
99585.8
99596.1
99604.7
99608.1
99608.9
99608.5
99606.1
99607.2
99611.8
99621.4
99634.1
99651.2
99670
99687.5
99703.5
99718.7
99734.5
99750.4
99765
99780.5
99794.4
99805.7
99815.3
99822.4
99827.9
99833.4
99837.1
99844.5
99848.6
99855.6
99859
99865.6
99869.6
99870.5
99868.5
99855
99847
99839.9
99824.6
99815.2
99823.1
99831.8
99857
99875.9
99904.1
99938.3
99957.7
100003
99996.3
100017
100069
99970.9
99982.1
99944.2
99927.8
100078
100109
100193
100154
100151
100125
100138
100116
100101
100078
100063
100048
100035
100021
100006
99305.7
99305.4
99305.1
99305
99305.8
99307.7
99311.7
99318.6
99328.1
99340.7
99350.3
99357.9
99363.9
99371.4
99377.9
99385.2
99391.6
99400.1
99408.2
99422.4
99436.8
99450.3
99463.8
99477.7
99493.6
99510.3
99526
99541.9
99557.8
99572
99585
99594.2
99602.1
99605.5
99607.5
99608.1
99607.7
99609.6
99615.2
99623.6
99635.6
99650.4
99667.6
99684
99700.3
99716
99731.7
99747.9
99763.4
99779.5
99791.3
99805.6
99815
99824.2
99829.7
99836.2
99841.5
99845.6
99850.5
99858.7
99860.8
99866.2
99870.1
99868.7
99866
99852
99844.5
99839
99821.3
99811.5
99821.4
99823.4
99850.1
99869.7
99900.2
99934.2
99959.5
99990.2
99993.6
100021
100080
99971.2
100061
100064
100334
99989.4
100118
100170
100140
100142
100121
100132
100110
100095
100073
100060
100047
100035
100020
100006
99284.3
99284.5
99285.4
99286.8
99289.3
99292.9
99298.5
99307.2
99318.6
99333.1
99344.8
99353.5
99360.1
99369.4
99377.8
99386.4
99394.6
99403
99414.6
99430.8
99447
99460.4
99472.6
99487.9
99503.6
99518.5
99532.8
99546.7
99560.3
99572.7
99584
99592.2
99599.2
99602.9
99605.5
99606.9
99607.9
99610.7
99616.5
99624.3
99635.5
99649.3
99664.9
99681.1
99696.8
99713.3
99728.6
99746.5
99761.3
99776.7
99791.8
99804.2
99816.6
99824.7
99831.1
99839.6
99842.3
99851.7
99854.6
99860.6
99862.8
99866.7
99868.6
99866.7
99865.4
99851.7
99843
99837.1
99815.7
99809.4
99817.7
99814.7
99843.3
99862.1
99896.3
99924.4
99955.5
99979.7
99991.4
100008
100061
100010
100027
100046
100153
100091
100131
100153
100133
100134
100117
100125
100103
100088
100069
100057
100045
100034
100020
100006
99276
99276.6
99277.9
99280.1
99283.1
99287.6
99293.9
99303
99314.4
99329.2
99341.7
99351.5
99358.9
99368.7
99378.7
99388.6
99397.2
99406.9
99423.8
99443
99457
99469
99481.5
99495.8
99511
99525.2
99538.9
99551
99563
99573.7
99583.4
99590.6
99596.7
99600.5
99603.5
99605.5
99607.6
99611.1
99616.9
99624.8
99635.7
99648.2
99663.2
99678.4
99694.5
99710.8
99726.9
99743.7
99758.1
99775.7
99789.8
99806.2
99816.1
99826.5
99832.4
99840.2
99848.3
99850.2
99857.8
99861.6
99863.9
99869.5
99872
99865.3
99863.9
99850.7
99842.5
99836.2
99809.2
99808.6
99812.3
99802.7
99834.1
99852
99889.5
99919.3
99947.5
99970.8
99992.2
100008
100085
99999
100091
100084
100180
100100
100117
100135
100127
100128
100112
100117
100095
100081
100064
100054
100044
100034
100020
100007
99278.8
99279.4
99280.9
99283.2
99286.6
99291.3
99297.6
99306.2
99316.7
99330.1
99342.6
99353.5
99361
99371
99381.3
99391.9
99402.5
99417.2
99435.9
99453.7
99465.7
99477.1
99489
99503
99517.9
99531.9
99544.4
99554.9
99565.1
99574.5
99583.1
99589.2
99594.4
99598.1
99601.2
99603.7
99606.5
99610.5
99616.6
99624.4
99635
99647.1
99660.4
99676.3
99691.4
99708.7
99723.6
99740.5
99754.7
99776.8
99788.7
99805.9
99816.8
99826.9
99832.4
99842
99846.8
99851.9
99858.7
99865.5
99868.6
99872.1
99872.4
99865.8
99863.1
99850.3
99843.3
99829.8
99805
99799.2
99805.4
99788.8
99823.2
99843
99881.2
99910.1
99944.7
99963.2
99987.6
99989.3
100105
100002
100103
100100
100164
100136
100126
100128
100123
100122
100107
100108
100087
100074
100059
100051
100043
100034
100020
100007
99289.1
99289.9
99291.4
99294
99297.4
99302.2
99308.2
99316.2
99325.4
99336.8
99348
99358.2
99366.8
99379.1
99391.4
99404.2
99416.5
99431.2
99450.1
99464.8
99476.1
99486.1
99498.1
99511.4
99526.8
99539.1
99549.7
99558.5
99567.9
99575.9
99583.5
99588.5
99592.7
99596.2
99599.5
99602
99605.2
99609.2
99616
99624.2
99634.6
99645.6
99658.4
99673.5
99689.9
99706.2
99720.6
99737.7
99751.4
99773.1
99787.6
99805.2
99816.3
99827
99832.3
99843.2
99846.1
99855.1
99863.4
99869.4
99870.4
99875.8
99874.9
99868.4
99865.8
99851.9
99840.6
99823.7
99808.9
99801
99793.1
99776
99810.2
99831.4
99874.9
99900.2
99936.8
99953.9
99993.2
99979.4
100102
99997.5
100115
100103
100149
100134
100124
100122
100116
100115
100101
100098
100078
100067
100055
100048
100042
100033
100020
100007
99307
99307.7
99309.3
99311.9
99315.4
99320
99325.8
99333.1
99341.4
99351.5
99361.5
99372.3
99383.8
99396.4
99408.5
99421.1
99433.7
99447.5
99464.1
99476.8
99488.4
99497.9
99509.6
99522
99535.8
99546
99555.1
99562.6
99570.4
99578.1
99583.6
99588.1
99591.5
99594.8
99597.6
99600
99603.2
99607.8
99615.5
99623.3
99633.7
99643.9
99657
99671.8
99688.2
99703.2
99717
99733.7
99746.6
99769.3
99785
99803.3
99814.3
99824.9
99831.6
99841.6
99846.7
99859.1
99865.8
99872.9
99876.8
99877.6
99877.1
99869.4
99865.5
99846.7
99841.1
99823.7
99804.5
99791.4
99774.3
99774.7
99793.7
99820.1
99871.2
99889.9
99937.8
99950.6
99989
99952.8
100128
100016
100128
100115
100148
100141
100127
100119
100109
100106
100093
100088
100070
100060
100050
100046
100041
100033
100020
100007
99330.7
99331.3
99333
99335.5
99338.9
99343.6
99349.4
99356.5
99364.8
99374.6
99384.8
99396.3
99407.5
99420.1
99432.1
99444.5
99456.7
99468.7
99481.5
99491.6
99502.4
99511.4
99522.6
99533.3
99545.5
99553.7
99561.6
99567.2
99574.2
99579.6
99584.5
99588.3
99591.3
99593.9
99596.3
99598.1
99601.5
99605.8
99614.2
99622.5
99633.5
99643.1
99656.5
99672
99687.4
99701.8
99713.2
99728.3
99741.9
99763.8
99779.4
99800.2
99811.5
99824
99831
99838
99847.7
99859.1
99870.1
99876.1
99878.5
99881
99879.5
99867.4
99860.7
99849.3
99843.9
99828.3
99806.9
99792.9
99797.2
99763.4
99785.2
99812.1
99861.6
99879.7
99922.7
99942.8
99987.7
99941.1
100094
100020
100127
100109
100135
100133
100123
100112
100101
100095
100084
100077
100062
100054
100046
100043
100040
100033
100021
100007
99361.2
99361.9
99363.5
99366.1
99369.6
99374.2
99380
99387.2
99395.4
99405
99415.2
99426.6
99438.1
99450.5
99462.3
99474.1
99484.9
99495.3
99504.7
99511.2
99519.2
99528.3
99537.9
99547.3
99556
99562.4
99568.5
99572.7
99577.7
99582
99585.7
99589
99591.5
99593.5
99595.3
99597
99600.6
99606.1
99614.7
99623.8
99634.8
99645.4
99657.7
99672.7
99686.7
99700.3
99710.2
99725.1
99735.6
99758.8
99774.2
99796.7
99806.7
99819.5
99824.7
99838.7
99851.1
99858.3
99869.1
99877
99879.7
99881.6
99877
99870.8
99867.2
99844
99840.8
99824.7
99812.1
99794.4
99778.8
99763.1
99784.9
99791.1
99860.2
99879.5
99925.5
99946.4
99860
100028
100073
100042
100122
100107
100127
100125
100116
100103
100090
100083
100073
100068
100054
100048
100043
100041
100039
100033
100021
100007
99396.7
99397.4
99399.1
99401.6
99405.2
99409.9
99415.7
99422.8
99430.7
99440
99449.8
99460.7
99471.5
99483
99493.8
99504.4
99514
99522.7
99530.4
99536.6
99542.5
99548.5
99556
99562.5
99567.9
99572.1
99575.4
99578
99581.9
99584.2
99588
99590.3
99592.5
99594.4
99596.1
99598
99602.6
99608.4
99617.7
99627.6
99638.6
99649.3
99660.5
99674.4
99686.6
99700.3
99707.6
99721.6
99732
99753.5
99767.5
99793
99800.1
99816.3
99820.4
99837.9
99845.3
99859.6
99868.8
99878.5
99879.4
99884.5
99880.1
99871.5
99867.4
99851.2
99847.6
99834.7
99821
99799.5
99776.6
99760.9
99791.1
99787.5
99854.9
99871.4
99931
99948.3
100164
99974.1
100081
100053
100111
100095
100109
100108
100101
100090
100078
100072
100062
100058
100048
100043
100039
100039
100038
100033
100021
100007
99435.6
99436.3
99438
99440.6
99444.1
99448.5
99453.9
99460.4
99467.7
99476
99484.7
99494.2
99503.6
99513.4
99522.5
99531.4
99539.2
99546.5
99552.3
99557.7
99562.1
99566.7
99570.8
99575
99578.2
99579.9
99582.1
99582.9
99585
99587.2
99589.4
99592.3
99594.7
99595.9
99598.4
99600.3
99605.7
99611.6
99622.1
99631.5
99642.8
99653.1
99663.4
99674.9
99686.8
99699.6
99707.6
99721
99728.1
99750.8
99765.6
99788.9
99795.8
99807.7
99807.9
99844.7
99845.6
99856.9
99865.1
99874.4
99877.3
99882.2
99876.1
99868.5
99871.5
99847.9
99844.6
99834.6
99825.7
99796.8
99787.5
99763.3
99769.2
99778.5
99852.8
99837.2
99909.5
99965.7
99985.3
99994
100065
100063
100106
100089
100094
100091
100085
100074
100066
100060
100054
100048
100042
100037
100036
100037
100037
100033
100021
100007
99470.9
99471.7
99473.4
99475.8
99479
99483
99487.8
99493.4
99499.5
99506.3
99513.3
99520.8
99528.2
99535.8
99542.7
99549.6
99555.5
99561
99565.5
99569.4
99572.6
99575.4
99578.3
99580.7
99583
99584.4
99585.6
99586.6
99588.3
99589.2
99591.4
99594.1
99595.8
99598
99600.4
99602.8
99608.3
99615.3
99624.3
99634.6
99645.3
99654.8
99664.1
99675
99684.8
99698.8
99707.2
99719.9
99729.1
99748.3
99761.6
99784.5
99790.9
99805.4
99805.9
99841
99840.4
99858.7
99866.7
99876.6
99879.8
99886.7
99885.3
99870.2
99879.6
99860.9
99859.3
99849.1
99827.5
99806.1
99793.2
99775.7
99783.6
99760.7
99876.2
99825.7
99913.6
99907.1
99997.2
99993.1
100055
100061
100091
100078
100077
100071
100067
100060
100054
100051
100046
100040
100036
100032
100033
100035
100037
100033
100021
100008
99498.5
99499.2
99500.7
99502.8
99505.6
99508.9
99513
99517.3
99522
99527.1
99532.3
99537.6
99542.8
99548.1
99552.9
99557.7
99561.8
99565.8
99568.8
99572
99574.2
99576.7
99578.3
99580.3
99581.6
99583.2
99584.6
99586.2
99587.8
99590.4
99592.3
99594.8
99598.7
99600.6
99604.6
99607.6
99612.9
99619.4
99626.6
99635.8
99644.6
99653.7
99662.8
99672.5
99683.2
99696
99708.9
99719.8
99733
99746.4
99764.6
99782.4
99792.5
99805
99808.7
99832.8
99838.4
99854.3
99863.5
99872.4
99877
99881.3
99886.6
99873
99883.2
99854.4
99848.4
99844.6
99835.8
99806.6
99803.8
99779.7
99793.7
99755.9
99790.7
99776.1
99858.9
99915.4
99933.2
100011
100048
100070
100088
100074
100067
100057
100053
100048
100046
100043
100039
100034
100029
100027
100029
100033
100036
100032
100022
100008
99514.5
99515.1
99516.3
99517.9
99520.1
99522.8
99525.9
99529.1
99532.7
99536.3
99539.9
99543.6
99547.1
99550.6
99553.7
99556.9
99559.7
99562.4
99564.8
99567.1