/*--------------------------------*- C++ -*----------------------------------*\
| =========                 |                                                 |
| \\      /  F ield         | OpenFOAM: The Open Source CFD Toolbox           |
|  \\    /   O peration     | Version:  2.3.0                                 |
|   \\  /    A nd           | Web:      www.OpenFOAM.org                      |
|    \\/     M anipulation  |                                                 |
\*---------------------------------------------------------------------------*/
FoamFile
{
    version     2.0;
    format      ascii;
    class       surfaceScalarField;
    location    "0.01";
    object      phi;
}
// * * * * * * * * * * * * * * * * * * * * * * * * * * * * * * * * * * * * * //

dimensions      [1 0 -1 0 0 0 0];

internalField   nonuniform List<scalar> 
9850
(
1.17883e-06
-2.64324e-07
1.25473e-06
-9.22759e-08
1.28133e-06
-3.43741e-08
1.28332e-06
-8.45473e-09
1.2871e-06
-9.16775e-09
1.29534e-06
-1.28635e-08
1.3081e-06
-1.77162e-08
1.31761e-06
-1.54686e-08
1.31772e-06
-6.95456e-09
1.30228e-06
8.49724e-09
1.26914e-06
2.72554e-08
1.23123e-06
3.39535e-08
1.21749e-06
1.16118e-08
1.2203e-06
-3.4374e-09
1.23193e-06
-1.16375e-08
1.2428e-06
-1.10598e-08
1.25054e-06
-7.88749e-09
1.25675e-06
-6.8118e-09
1.26582e-06
-9.73012e-09
1.29049e-06
-2.53588e-08
1.32739e-06
-3.72345e-08
1.36146e-06
-3.45532e-08
1.35449e-06
7.10093e-09
1.34075e-06
1.45193e-08
1.30469e-06
3.76058e-08
1.25604e-06
5.02918e-08
1.236e-06
2.27969e-08
1.24769e-06
-9.43469e-09
1.27335e-06
-2.32536e-08
1.31633e-06
-4.165e-08
1.35951e-06
-4.34631e-08
1.37474e-06
-1.73271e-08
1.38155e-06
-9.41417e-09
1.39495e-06
-1.62021e-08
1.41004e-06
-1.70014e-08
1.3993e-06
1.05334e-08
1.37861e-06
2.14469e-08
1.3397e-06
4.03895e-08
1.29474e-06
4.69271e-08
1.25452e-06
4.24893e-08
1.21775e-06
3.98985e-08
1.19409e-06
2.70795e-08
1.18864e-06
9.32023e-09
1.1999e-06
-7.47159e-09
1.22461e-06
-2.17498e-08
1.24859e-06
-2.20938e-08
1.25481e-06
-5.38471e-09
1.23702e-06
1.77447e-08
1.21339e-06
2.26384e-08
1.20295e-06
9.4417e-09
1.21116e-06
-8.40384e-09
1.2321e-06
-2.05331e-08
1.27436e-06
-4.11068e-08
1.33591e-06
-5.95359e-08
1.39767e-06
-5.9509e-08
1.42741e-06
-2.86146e-08
1.4161e-06
1.30814e-08
1.39049e-06
2.67953e-08
1.34984e-06
4.08864e-08
1.32623e-06
2.32169e-08
1.30832e-06
1.69581e-08
1.31028e-06
-1.3589e-09
1.32752e-06
-1.62098e-08
1.36228e-06
-3.29497e-08
1.39952e-06
-3.45444e-08
1.42424e-06
-2.12995e-08
1.43115e-06
-3.74821e-09
1.43385e-06
7.35518e-10
1.43749e-06
-1.77246e-09
1.44454e-06
-5.73289e-09
1.45188e-06
-7.1744e-09
1.44668e-06
5.65226e-09
1.40839e-06
3.78561e-08
1.2949e-06
1.12212e-07
1.14867e-06
1.40643e-07
1.08686e-06
5.23386e-08
1.08062e-06
-5.56486e-09
1.07866e-06
-4.80717e-09
1.08503e-06
-1.32455e-08
1.0995e-06
-2.08971e-08
1.11826e-06
-2.51912e-08
1.14016e-06
-2.93408e-08
1.14092e-06
-9.09965e-09
1.12775e-06
1.01475e-08
1.10793e-06
2.21163e-08
1.06697e-06
3.96894e-08
9.62076e-07
8.70959e-08
7.3456e-07
1.67439e-07
4.0553e-07
2.25651e-07
1.4452e-07
1.89379e-07
1.68968e-07
1.55054e-08
3.12388e-07
1.20208e-07
3.12298e-07
1.10588e-08
2.98317e-07
1.36645e-08
2.86084e-07
1.19591e-08
2.76263e-07
1.10023e-08
2.69806e-07
8.47623e-09
2.67037e-07
4.86625e-09
2.64619e-07
4.1274e-09
1.94455e-09
3.3802e-06
-3.32857e-07
3.55913e-06
-3.16628e-07
3.69749e-06
-1.92468e-07
3.79704e-06
-1.26292e-07
3.88967e-06
-1.17225e-07
3.96806e-06
-1.04857e-07
4.02925e-06
-9.36368e-08
4.04437e-06
-4.83329e-08
4.01973e-06
-2.59404e-09
3.9681e-06
3.99261e-08
3.89373e-06
8.43652e-08
3.82705e-06
8.90089e-08
3.81496e-06
1.73014e-08
3.83603e-06
-2.68124e-08
3.87707e-06
-5.32097e-08
3.91108e-06
-4.58073e-08
3.91327e-06
-1.10993e-08
3.90423e-06
-5.83264e-11
3.90323e-06
-1.09054e-08
3.94641e-06
-7.08162e-08
4.03345e-06
-1.25718e-07
4.12529e-06
-1.27914e-07
4.09779e-06
3.44841e-08
4.03823e-06
7.62316e-08
3.88587e-06
1.94626e-07
3.69321e-06
2.48461e-07
3.60616e-06
1.18237e-07
3.64704e-06
-4.30578e-08
3.72566e-06
-9.42613e-08
3.85177e-06
-1.63439e-07
4.00493e-06
-1.96854e-07
4.09599e-06
-1.14192e-07
4.12622e-06
-4.66103e-08
4.17014e-06
-6.76156e-08
4.23204e-06
-8.38701e-08
4.21544e-06
2.68627e-08
4.17792e-06
6.14345e-08
4.09067e-06
1.32013e-07
3.97543e-06
1.67949e-07
3.8821e-06
1.42544e-07
3.81723e-06
1.14012e-07
3.75663e-06
9.77291e-08
3.69899e-06
7.8275e-08
3.6887e-06
1.36617e-08
3.72016e-06
-4.47117e-08
3.77999e-06
-7.62899e-08
3.82311e-06
-4.56826e-08
3.80941e-06
3.16563e-08
3.78018e-06
4.94099e-08
3.74056e-06
4.66781e-08
3.73144e-06
6.1708e-10
3.74702e-06
-3.46578e-08
3.80807e-06
-9.8483e-08
3.93687e-06
-1.81931e-07
4.11201e-06
-2.27791e-07
4.22419e-06
-1.36294e-07
4.18514e-06
5.74567e-08
4.0747e-06
1.40992e-07
3.90924e-06
2.07467e-07
3.81876e-06
1.13029e-07
3.7664e-06
6.63781e-08
3.77386e-06
-7.02869e-09
3.82887e-06
-6.83559e-08
3.94644e-06
-1.44911e-07
4.0863e-06
-1.65756e-07
4.18594e-06
-1.1019e-07
4.22137e-06
-2.93911e-08
4.23827e-06
-6.07755e-09
4.25211e-06
-1.07208e-08
4.27274e-06
-2.27594e-08
4.31623e-06
-5.01281e-08
4.32832e-06
-5.48232e-09
4.23513e-06
1.28578e-07
3.93863e-06
4.03285e-07
3.50536e-06
5.55919e-07
3.25951e-06
2.61834e-07
3.18158e-06
1.98142e-08
3.1036e-06
2.69194e-08
3.03506e-06
3.35851e-09
2.99214e-06
-2.87317e-08
2.97004e-06
-5.36684e-08
2.98022e-06
-8.77423e-08
2.94546e-06
-2.32443e-08
2.81885e-06
7.37195e-08
2.69164e-06
9.37648e-08
2.6148e-06
1.09785e-07
2.43529e-06
2.51823e-07
1.93279e-06
4.97548e-07
1.11868e-06
7.92159e-07
4.64309e-07
6.50792e-07
5.83408e-07
-1.02926e-07
9.69843e-07
9.44959e-07
9.47849e-07
8.98784e-08
8.97439e-07
6.36188e-08
8.58328e-07
5.02675e-08
8.28642e-07
4.42282e-08
8.09342e-07
3.38348e-08
8.0082e-07
1.96834e-08
7.93612e-07
1.64677e-08
7.72609e-09
6.31412e-06
-3.60443e-07
6.39773e-06
-4.45211e-07
6.53883e-06
-3.60116e-07
6.63935e-06
-2.52726e-07
6.67369e-06
-1.74454e-07
6.66346e-06
-1.16269e-07
6.6275e-06
-8.16319e-08
6.55068e-06
-3.22669e-10
6.42614e-06
8.93132e-08
6.27339e-06
1.6065e-07
6.15629e-06
1.74331e-07
6.10824e-06
1.18429e-07
6.14664e-06
-3.20839e-08
6.26988e-06
-1.55442e-07
6.42869e-06
-2.14701e-07
6.51024e-06
-1.30616e-07
6.47404e-06
2.21129e-08
6.40028e-06
6.87325e-08
6.34763e-06
3.71318e-08
6.39179e-06
-1.19719e-07
6.5095e-06
-2.47085e-07
6.71346e-06
-3.34878e-07
6.74714e-06
-1.02698e-09
6.72044e-06
1.06171e-07
6.61422e-06
3.08776e-07
6.40362e-06
4.69358e-07
6.18536e-06
3.51952e-07
6.15248e-06
3.43017e-09
6.18695e-06
-1.14643e-07
6.30785e-06
-2.76043e-07
6.49453e-06
-3.82585e-07
6.61398e-06
-2.40682e-07
6.67432e-06
-1.16109e-07
6.77726e-06
-1.80464e-07
6.9132e-06
-2.26094e-07
6.90021e-06
4.10008e-08
6.83539e-06
1.30653e-07
6.67708e-06
2.97283e-07
6.4642e-06
3.90006e-07
6.27337e-06
3.44052e-07
6.10822e-06
2.93339e-07
5.96497e-06
2.54622e-07
5.8541e-06
1.98744e-07
5.81779e-06
5.1624e-08
5.88452e-06
-1.14777e-07
6.06965e-06
-2.51101e-07
6.24953e-06
-2.06341e-07
6.28184e-06
1.38117e-08
6.23398e-06
1.05598e-07
6.14057e-06
1.45355e-07
6.10633e-06
4.02829e-08
6.12827e-06
-5.45857e-08
6.23426e-06
-2.02932e-07
6.49988e-06
-4.44692e-07
6.90876e-06
-6.14378e-07
7.19439e-06
-3.95014e-07
7.14408e-06
1.27542e-07
6.91189e-06
3.87925e-07
6.55255e-06
5.74083e-07
6.31123e-06
3.54329e-07
6.15614e-06
2.1091e-07
6.11769e-06
2.08053e-08
6.1784e-06
-1.37331e-07
6.37044e-06
-3.27482e-07
6.6388e-06
-3.99366e-07
6.84563e-06
-2.75927e-07
6.93408e-06
-8.46117e-08
6.97311e-06
-1.91268e-08
6.99508e-06
-2.35976e-08
7.01531e-06
-4.03364e-08
7.09868e-06
-1.3974e-07
7.16663e-06
-7.2081e-08
7.06149e-06
2.31838e-07
6.62448e-06
8.36739e-07
5.91856e-06
1.23263e-06
5.43601e-06
6.79198e-07
5.21163e-06
1.35291e-07
4.98345e-06
1.40292e-07
4.755e-06
1.0227e-07
4.55863e-06
3.76308e-08
4.40633e-06
-2.4337e-08
4.34039e-06
-1.31674e-07
4.26615e-06
-4.14306e-08
4.07033e-06
1.68795e-07
3.78333e-06
2.44415e-07
3.58412e-06
2.37377e-07
3.3752e-06
4.26393e-07
2.73259e-06
9.70227e-07
1.57179e-06
1.57657e-06
6.44648e-07
1.33177e-06
1.00676e-06
-2.412e-07
1.63948e-06
1.73981e-06
1.57172e-06
2.18008e-07
1.49577e-06
1.37964e-07
1.43001e-06
1.14706e-07
1.38042e-06
9.97267e-08
1.34836e-06
7.59866e-08
1.33371e-06
4.48453e-08
1.32161e-06
3.71321e-08
1.73368e-08
9.24854e-06
4.44605e-07
8.96136e-06
-2.0203e-07
8.8868e-06
-3.10897e-07
8.87161e-06
-2.661e-07
8.93023e-06
-2.60762e-07
8.98607e-06
-2.00616e-07
9.04071e-06
-1.68149e-07
9.03749e-06
-3.53953e-08
8.9239e-06
1.59536e-07
8.7141e-06
3.29313e-07
8.51593e-06
3.37974e-07
8.38321e-06
2.26813e-07
8.3776e-06
-4.20291e-08
8.50171e-06
-2.88194e-07
8.76703e-06
-4.86349e-07
9.01241e-06
-3.83599e-07
9.06951e-06
-4.07317e-08
9.02719e-06
1.02172e-07
8.95109e-06
1.0462e-07
8.96363e-06
-1.40699e-07
9.08787e-06
-3.78469e-07
9.3192e-06
-5.71604e-07
9.34466e-06
-3.23787e-08
9.27655e-06
1.78462e-07
9.02998e-06
5.67011e-07
8.58523e-06
9.31004e-07
8.23954e-06
7.20766e-07
8.24999e-06
1.46874e-08
8.3685e-06
-2.11128e-07
8.65474e-06
-5.48521e-07
9.01509e-06
-7.38993e-07
9.20375e-06
-4.3541e-07
9.26094e-06
-1.81852e-07
9.37195e-06
-3.0084e-07
9.52154e-06
-3.80763e-07
9.4874e-06
7.89797e-08
9.378e-06
2.46337e-07
9.11198e-06
5.723e-07
8.70606e-06
8.07858e-07
8.2574e-06
8.06263e-07
7.89021e-06
6.76316e-07
7.72203e-06
4.29738e-07
7.59018e-06
3.05087e-07
7.41352e-06
1.24676e-07
7.26046e-06
-1.72584e-07
7.36575e-06
-5.01622e-07
7.65713e-06
-4.65526e-07
7.90043e-06
-1.31162e-07
8.14222e-06
5.30779e-08
8.27512e-06
1.87226e-07
8.31948e-06
6.83503e-08
8.33531e-06
-6.28929e-08
8.33477e-06
-2.55119e-07
8.39665e-06
-6.84583e-07
8.84209e-06
-1.09863e-06
9.42198e-06
-8.87786e-07
9.65863e-06
7.92369e-08
9.57037e-06
6.38025e-07
9.12609e-06
1.14068e-06
8.69315e-06
8.08893e-07
8.31238e-06
5.49652e-07
7.91803e-06
2.52198e-07
7.44023e-06
3.32737e-08
7.23363e-06
-3.61456e-07
7.53651e-06
-6.04764e-07
8.13591e-06
-5.88835e-07
8.71535e-06
-3.28459e-07
9.11714e-06
-1.86266e-07
9.34452e-06
-9.42034e-08
9.39383e-06
-5.8794e-08
9.42924e-06
-2.2316e-07
9.50188e-06
-1.79525e-07
9.53065e-06
2.10896e-07
9.23031e-06
1.22582e-06
8.41256e-06
2.04459e-06
7.61191e-06
1.41181e-06
7.14886e-06
4.48995e-07
6.7415e-06
3.57431e-07
6.33903e-06
2.81131e-07
5.97952e-06
1.78051e-07
5.70015e-06
5.48193e-08
5.54836e-06
-1.51081e-07
5.41084e-06
-4.09685e-08
5.14898e-06
2.98506e-07
4.74733e-06
4.69587e-07
4.40061e-06
4.34494e-07
4.06468e-06
6.78358e-07
3.26504e-06
1.53888e-06
1.85829e-06
2.52931e-06
8.10235e-07
2.17689e-06
1.55809e-06
-6.91079e-08
2.38641e-06
2.13185e-06
2.21259e-06
4.49553e-07
2.09675e-06
2.51175e-07
2.00076e-06
2.08969e-07
1.93117e-06
1.77606e-07
1.88662e-06
1.34674e-07
1.86566e-06
8.05491e-08
1.84862e-06
6.618e-08
3.0871e-08
1.06191e-05
1.06079e-07
1.08274e-05
-3.93188e-07
1.10257e-05
-5.31732e-07
1.13204e-05
-5.89915e-07
1.16451e-05
-6.14731e-07
1.18988e-05
-4.87172e-07
1.21355e-05
-4.43241e-07
1.24146e-05
-3.60247e-07
1.2596e-05
-7.24341e-08
1.25606e-05
3.17478e-07
1.24289e-05
4.31107e-07
1.21064e-05
5.22687e-07
1.16619e-05
3.83695e-07
1.13293e-05
3.21615e-08
1.11802e-05
-3.47223e-07
1.11421e-05
-3.58166e-07
1.1108e-05
-1.50825e-08
1.10537e-05
1.43034e-07
1.10159e-05
1.29473e-07
1.11205e-05
-2.58333e-07
1.13842e-05
-6.53733e-07
1.17661e-05
-9.61008e-07
1.18283e-05
-1.06616e-07
1.16862e-05
3.26658e-07
1.13497e-05
9.19234e-07
1.08545e-05
1.45076e-06
1.04802e-05
1.12598e-06
1.05392e-05
-1.25206e-08
1.07166e-05
-3.57755e-07
1.11024e-05
-9.13986e-07
1.16052e-05
-1.2329e-06
1.19474e-05
-7.79041e-07
1.20791e-05
-3.18598e-07
1.22571e-05
-4.84447e-07
1.24873e-05
-6.11865e-07
1.24621e-05
1.12144e-07
1.23134e-05
4.03391e-07
1.1935e-05
9.6144e-07
1.13157e-05
1.44063e-06
1.05647e-05
1.57079e-06
9.92818e-06
1.32169e-06
9.62559e-06
7.06468e-07
9.33055e-06
4.93589e-07
8.96954e-06
2.59176e-07
8.59569e-06
-1.39076e-07
8.33315e-06
-6.36488e-07
8.35836e-06
-6.74018e-07
8.54684e-06
-3.05566e-07
8.85746e-06
-1.01734e-07
9.42342e-06
4.60122e-08
9.92273e-06
-1.272e-08
1.00885e-05
-1.71988e-07
1.00512e-05
-2.75954e-07
9.75685e-06
-7.08861e-07
9.58501e-06
-1.41098e-06
9.91788e-06
-1.23849e-06
1.04444e-05
-3.00231e-07
1.10153e-05
5.50786e-07
1.11919e-05
1.58938e-06
1.07796e-05
1.33723e-06
1.00621e-05
1.18937e-06
9.2092e-06
7.33989e-07
8.18313e-06
4.44955e-07
7.27483e-06
-8.63055e-08
6.88032e-06
-5.9781e-07
7.05482e-06
-7.11267e-07
7.59164e-06
-6.15112e-07
8.71122e-06
-5.83443e-07
1.00672e-05
-4.80351e-07
1.08478e-05
-3.05482e-07
1.113e-05
-3.89064e-07
1.12752e-05
-3.18725e-07
1.14222e-05
7.40415e-08
1.13719e-05
1.41535e-06
1.0742e-05
2.84612e-06
9.71792e-06
2.37696e-06
8.99382e-06
1.0321e-06
8.41823e-06
7.00562e-07
7.83819e-06
5.41359e-07
7.29885e-06
3.99227e-07
6.88948e-06
1.82009e-07
6.67107e-06
-1.72165e-07
6.44169e-06
1.75074e-09
6.08462e-06
4.88194e-07
5.58513e-06
7.58565e-07
5.11926e-06
6.99143e-07
4.63145e-06
1.02738e-06
3.64585e-06
2.18408e-06
2.05237e-06
3.62712e-06
1.02864e-06
3.08146e-06
2.20708e-06
8.00508e-07
3.10444e-06
2.35395e-06
2.84221e-06
7.59869e-07
2.69459e-06
3.95502e-07
2.57e-06
3.31674e-07
2.4809e-06
2.77397e-07
2.42418e-06
2.09572e-07
2.39664e-06
1.27116e-07
2.37433e-06
1.03958e-07
4.85421e-08
1.51914e-05
-4.39724e-07
1.52858e-05
-4.56453e-07
1.50594e-05
-3.18999e-07
1.46389e-05
-1.94739e-07
1.41963e-05
-2.02363e-07
1.39875e-05
-3.14955e-07
1.40337e-05
-5.32279e-07
1.42242e-05
-6.00704e-07
1.44714e-05
-3.73434e-07
1.45815e-05
1.59068e-07
1.44651e-05
5.10719e-07
1.41324e-05
8.30195e-07
1.38765e-05
6.18565e-07
1.37873e-05
1.06895e-07
1.38932e-05
-4.65259e-07
1.40193e-05
-5.02267e-07
1.39878e-05
6.06282e-09
1.38342e-05
2.77549e-07
1.36472e-05
2.97868e-07
1.36846e-05
-3.12623e-07
1.39564e-05
-9.41244e-07
1.43918e-05
-1.40558e-06
1.45428e-05
-2.76052e-07
1.43226e-05
5.57519e-07
1.38334e-05
1.42859e-06
1.3098e-05
2.21946e-06
1.24894e-05
1.77221e-06
1.24538e-05
6.59594e-08
1.268e-05
-5.46115e-07
1.31808e-05
-1.38635e-06
1.38174e-05
-1.84826e-06
1.43068e-05
-1.25601e-06
1.45694e-05
-5.77209e-07
1.48666e-05
-7.79337e-07
1.52395e-05
-9.77242e-07
1.52961e-05
7.01773e-08
1.51613e-05
5.48891e-07
1.47177e-05
1.41756e-06
1.39006e-05
2.27218e-06
1.28682e-05
2.61778e-06
1.19585e-05
2.229e-06
1.15016e-05
1.09225e-06
1.10581e-05
7.49437e-07
1.05727e-05
4.25973e-07
1.01313e-05
-1.14515e-07
9.72931e-06
-7.13925e-07
9.38159e-06
-7.92126e-07
9.22192e-06
-3.42687e-07
9.25897e-06
-1.30388e-07
9.55774e-06
-6.16208e-08
1.02063e-05
-1.59423e-07
1.0709e-05
-3.64561e-07
1.08113e-05
-3.10424e-07
1.05012e-05
-6.613e-07
9.91767e-06
-1.39974e-06
9.82046e-06
-1.38632e-06
1.0276e-05
-6.7821e-07
1.09811e-05
2.72543e-07
1.19939e-05
1.70666e-06
1.22424e-05
1.8218e-06
1.1521e-05
1.87134e-06
1.05327e-05
1.3178e-06
9.32337e-06
9.00798e-07
8.18218e-06
2.70159e-07
7.27446e-06
-3.49938e-07
6.67394e-06
-6.07838e-07
6.53129e-06
-6.52943e-07
6.7729e-06
-7.04805e-07
7.48885e-06
-8.32047e-07
9.08621e-06
-7.08061e-07
1.09845e-05
-7.25032e-07
1.21117e-05
-8.21882e-07
1.27079e-05
-2.78852e-07
1.30248e-05
1.31331e-06
1.27675e-05
3.40916e-06
1.174e-05
3.42209e-06
1.07575e-05
1.9273e-06
1.00049e-05
1.21109e-06
9.26527e-06
8.82226e-07
8.53602e-06
7.02856e-07
7.97599e-06
3.58935e-07
7.66008e-06
-1.80625e-07
7.33583e-06
8.10114e-08
6.87383e-06
7.40229e-07
6.26223e-06
1.1204e-06
5.67877e-06
1.03579e-06
5.05484e-06
1.46209e-06
3.91264e-06
3.00014e-06
2.18611e-06
4.79938e-06
1.30547e-06
3.26448e-06
2.95905e-06
2.34365e-06
3.81814e-06
2.43273e-06
3.46957e-06
1.14321e-06
3.28794e-06
5.73866e-07
3.1368e-06
4.81109e-07
3.02868e-06
3.98668e-07
2.96027e-06
3.00226e-07
2.92622e-06
1.84497e-07
2.89855e-06
1.50596e-07
7.05529e-08
1.67562e-05
6.34154e-07
1.59957e-05
3.1671e-07
1.56106e-05
4.87901e-08
1.55903e-05
-1.98018e-07
1.57433e-05
-3.8555e-07
1.60505e-05
-6.59531e-07
1.64896e-05
-1.01623e-06
1.68191e-05
-9.77231e-07
1.67708e-05
-3.76296e-07
1.65076e-05
3.76878e-07
1.60857e-05
8.98518e-07
1.57295e-05
1.16002e-06
1.58643e-05
4.64857e-07
1.60821e-05
-1.23616e-07
1.64578e-05
-8.51892e-07
1.67225e-05
-7.80128e-07
1.66177e-05
9.24899e-08
1.63512e-05
5.18771e-07
1.61066e-05
5.1393e-07
1.61357e-05
-3.62057e-07
1.65155e-05
-1.34117e-06
1.7115e-05
-2.00897e-06
1.74916e-05
-6.72405e-07
1.71622e-05
9.12443e-07
1.6447e-05
2.17089e-06
1.53224e-05
3.38335e-06
1.44927e-05
2.63569e-06
1.44342e-05
1.57231e-07
1.46221e-05
-7.27441e-07
1.51322e-05
-1.87885e-06
1.58745e-05
-2.47462e-06
1.65686e-05
-1.79478e-06
1.69782e-05
-8.88147e-07
1.73768e-05
-1.11338e-06
1.78549e-05
-1.39844e-06
1.7985e-05
-2.08669e-08
1.78708e-05
6.82223e-07
1.73633e-05
1.94651e-06
1.6408e-05
3.2557e-06
1.51651e-05
3.88088e-06
1.39732e-05
3.40601e-06
1.33164e-05
1.63557e-06
1.27121e-05
1.08948e-06
1.20816e-05
6.48465e-07
1.15235e-05
-8.20951e-08
1.10694e-05
-8.10173e-07
1.06616e-05
-9.02023e-07
1.01688e-05
-3.31743e-07
9.75778e-06
-1.1916e-09
9.62481e-06
5.52048e-08
9.72724e-06
-1.8933e-07
9.93144e-06
-3.78771e-07
1.00635e-05
-3.55537e-07
9.8917e-06
-6.40045e-07
9.32049e-06
-1.25736e-06
9.00496e-06
-1.40917e-06
9.31223e-06
-8.6366e-07
9.96934e-06
-2.70028e-08
1.14914e-05
1.37368e-06
1.27443e-05
2.37132e-06
1.25431e-05
2.1912e-06
1.15455e-05
1.98605e-06
1.02925e-05
1.35727e-06
9.0173e-06
6.36264e-07
7.93772e-06
-5.87721e-08
7.07837e-06
-3.90059e-07
6.48558e-06
-5.54918e-07
6.31826e-06
-6.72743e-07
6.52613e-06
-9.57056e-07
7.05462e-06
-8.72514e-07
8.34774e-06
-1.1049e-06
1.04364e-05
-1.40705e-06
1.25455e-05
-1.10782e-06
1.38881e-05
6.63305e-07
1.4396e-05
3.51846e-06
1.36149e-05
4.4467e-06
1.23957e-05
3.07091e-06
1.14183e-05
1.9713e-06
1.05545e-05
1.2947e-06
9.64793e-06
1.07916e-06
8.93198e-06
5.83706e-07
8.50618e-06
-1.7324e-07
8.09415e-06
1.8704e-07
7.529e-06
1.05321e-06
6.80519e-06
1.5502e-06
6.11963e-06
1.43578e-06
5.40031e-06
1.95418e-06
4.10193e-06
3.91659e-06
2.20758e-06
6.06855e-06
1.63388e-06
3.16574e-06
3.82032e-06
5.0281e-06
4.50555e-06
2.46799e-06
4.09838e-06
1.5739e-06
3.87693e-06
7.92889e-07
3.70088e-06
6.56045e-07
3.57451e-06
5.40704e-07
3.49462e-06
4.06438e-07
3.454e-06
2.52792e-07
3.42091e-06
2.06176e-07
9.70048e-08
1.9893e-05
-8.7882e-07
2.00896e-05
8.84031e-08
1.93887e-05
7.13581e-07
1.8628e-05
5.31783e-07
1.82657e-05
-5.59031e-08
1.85343e-05
-9.69413e-07
1.90582e-05
-1.58572e-06
1.97575e-05
-1.71158e-06
2.02148e-05
-8.73815e-07
1.98678e-05
6.89474e-07
1.93544e-05
1.3817e-06
1.87863e-05
1.69711e-06
1.87688e-05
4.65567e-07
1.89191e-05
-2.84909e-07
1.92721e-05
-1.21155e-06
1.97251e-05
-1.21388e-06
1.97243e-05
7.94123e-08
1.94273e-05
7.84804e-07
1.8959e-05
9.29682e-07
1.86062e-05
-8.96918e-08
1.86723e-05
-1.51084e-06
1.9196e-05
-2.51721e-06
2.00441e-05
-1.36481e-06
1.99388e-05
1.15904e-06
1.9243e-05
2.9664e-06
1.80046e-05
4.68984e-06
1.68981e-05
3.74157e-06
1.62437e-05
7.36275e-07
1.52526e-05
-1.83329e-07
1.3827e-05
-1.33116e-06
1.36238e-05
-2.10493e-06
1.49378e-05
-2.05492e-06
1.63198e-05
-1.16567e-06
1.75043e-05
-1.40011e-06
1.88529e-05
-1.81569e-06
1.97585e-05
-3.45738e-07
2.00842e-05
6.47216e-07
1.97294e-05
2.47641e-06
1.87372e-05
4.41396e-06
1.72968e-05
5.4327e-06
1.58098e-05
4.88853e-06
1.4943e-05
2.34041e-06
1.40879e-05
1.55895e-06
1.31504e-05
9.93033e-07
1.22713e-05
5.85551e-08
1.15922e-05
-8.36019e-07
1.11384e-05
-9.97729e-07
1.0752e-05
-3.79842e-07
1.02749e-05
9.26284e-08
9.75891e-06
2.40414e-07
9.36031e-06
-2.37196e-08
9.15852e-06
-2.89311e-07
9.08608e-06
-3.68705e-07
8.9045e-06
-6.32672e-07
8.50303e-06
-1.16404e-06
8.19655e-06
-1.44672e-06
8.34327e-06
-9.90836e-07
8.73856e-06
-2.26028e-07
9.99533e-06
9.5893e-07
1.20214e-05
2.76683e-06
1.29737e-05
1.95178e-06
1.21704e-05
2.707e-06
1.09787e-05
1.73648e-06
9.59518e-06
9.93106e-07
8.38854e-06
2.27437e-07
7.41866e-06
-1.51586e-07
6.67767e-06
-3.71789e-07
6.31067e-06
-5.54688e-07
6.33958e-06
-9.35173e-07
6.57601e-06
-9.12913e-07
7.16462e-06
-1.22755e-06
8.13163e-06
-1.72095e-06
9.79593e-06
-1.91393e-06
1.22836e-05
-4.53707e-07
1.47202e-05
2.74147e-06
1.50506e-05
5.08782e-06
1.38393e-05
4.25892e-06
1.26115e-05
2.99745e-06
1.16529e-05
1.76412e-06
1.05904e-05
1.52471e-06
9.73091e-06
8.42725e-07
9.20634e-06
-1.61381e-07
8.71455e-06
3.1071e-07
8.04494e-06
1.42422e-06
7.21251e-06
2.04528e-06
6.4475e-06
1.88785e-06
5.6491e-06
2.49956e-06
4.20103e-06
4.93115e-06
2.21814e-06
7.38497e-06
2.11174e-06
2.7197e-06
4.79681e-06
8.76531e-06
5.17036e-06
2.67098e-06
4.72375e-06
2.03986e-06
4.46279e-06
1.0527e-06
4.26232e-06
8.56366e-07
4.11758e-06
7.03697e-07
4.02643e-06
5.28002e-07
3.97929e-06
3.32014e-07
3.94093e-06
2.70578e-07
1.27766e-07
2.16928e-05
-6.26615e-07
2.1779e-05
-7.24552e-08
2.16456e-05
7.9094e-07
2.09933e-05
1.13741e-06
2.01403e-05
7.3641e-07
1.97019e-05
-6.27089e-07
1.96344e-05
-1.60626e-06
2.00049e-05
-2.01583e-06
2.07296e-05
-1.38279e-06
2.08697e-05
6.38411e-07
2.0581e-05
1.675e-06
1.98826e-05
2.34003e-06
1.93065e-05
9.30613e-07
1.87642e-05
3.63117e-08
1.86014e-05
-1.26458e-06
1.94074e-05
-1.68893e-06
2.02139e-05
-3.29701e-07
2.02231e-05
9.70754e-07
1.96213e-05
1.48254e-06
1.82085e-05
1.0023e-06
1.61808e-05
-2.31363e-07
1.45671e-05
-2.06928e-06
1.59525e-05
-1.87502e-06
1.76938e-05
3.95908e-07
1.87637e-05
2.78911e-06
1.894e-05
5.23854e-06
1.81833e-05
4.67851e-06
1.63872e-05
2.24238e-06
1.38115e-05
1.18855e-06
1.05711e-05
1.78367e-07
8.24967e-06
-1.13478e-06
7.94403e-06
-1.65563e-06
8.68955e-06
-1.38021e-06
9.51362e-06
-1.70129e-06
1.08334e-05
-2.33287e-06
1.33672e-05
-1.45854e-06
1.65903e-05
-2.64715e-07
1.86465e-05
1.77694e-06
1.93931e-05
4.821e-06
1.88361e-05
6.6142e-06
1.72739e-05
6.42126e-06
1.61918e-05
3.21352e-06
1.5061e-05
2.17041e-06
1.37638e-05
1.46291e-06
1.25286e-05
3.18073e-07
1.15846e-05
-7.82537e-07
1.0992e-05
-1.04516e-06
1.05749e-05
-3.94177e-07
1.01193e-05
1.92336e-07
9.57567e-06
4.40961e-07
9.04193e-06
1.96892e-07
8.66551e-06
-1.54814e-07
8.45279e-06
-3.52003e-07
8.2352e-06
-6.36911e-07
7.94155e-06
-1.14302e-06
7.70188e-06
-1.48038e-06
7.76252e-06
-1.11651e-06
7.92983e-06
-3.72582e-07
8.74355e-06
6.37697e-07
1.07921e-05
2.63402e-06
1.27304e-05
2.14633e-06
1.24602e-05
2.89453e-06
1.1421e-05
2.08759e-06
9.94639e-06
1.3634e-06
8.59003e-06
5.53248e-07
7.52653e-06
1.04144e-07
6.69643e-06
-1.30297e-07
6.27748e-06
-4.1436e-07
6.38291e-06
-8.83348e-07
6.61706e-06
-9.35795e-07
6.7311e-06
-1.05553e-06
6.83037e-06
-1.57369e-06
7.58113e-06
-2.16592e-06
9.41552e-06
-1.19459e-06
1.26386e-05
9.42477e-07
1.51649e-05
5.31948e-06
1.49763e-05
4.78346e-06
1.35664e-05
4.31295e-06
1.25647e-05
2.24668e-06
1.13846e-05
2.00873e-06
1.04117e-05
1.11222e-06
9.79997e-06
-1.52637e-07
9.23263e-06
4.44153e-07
8.45462e-06
1.85861e-06
7.51731e-06
2.60929e-06
6.68572e-06
2.37162e-06
5.82019e-06
3.08953e-06
4.23691e-06
6.05934e-06
2.26519e-06
8.683e-06
2.67628e-06
2.20722e-06
5.65432e-06
1.28625e-05
5.72124e-06
3.07035e-06
5.34221e-06
2.4377e-06
5.05106e-06
1.34438e-06
4.8215e-06
1.08703e-06
4.65718e-06
8.88899e-07
4.55491e-06
6.64823e-07
4.50153e-06
4.21904e-07
4.45866e-06
3.43079e-07
1.62407e-07
2.4878e-05
4.29547e-06
2.32824e-05
1.10238e-06
2.31303e-05
1.10609e-06
2.26826e-05
1.68099e-06
2.14369e-05
1.74924e-06
1.89763e-05
1.21867e-06
1.57926e-05
4.52818e-07
1.36553e-05
-4.76162e-07
1.45201e-05
-9.3717e-07
1.64201e-05
1.19081e-07
1.74093e-05
1.62314e-06
1.72275e-05
2.84304e-06
1.58056e-05
2.0054e-06
1.28975e-05
1.48167e-06
1.00047e-05
-7.21148e-08
9.37419e-06
-1.17717e-06
1.04716e-05
-9.03721e-07
1.20726e-05
-1.91779e-07
1.38767e-05
1.15915e-06
1.34889e-05
1.32332e-06
1.14609e-05
8.11976e-07
9.01953e-06
-1.03346e-06
8.71405e-06
-1.84811e-06
1.00552e-05
-6.77097e-07
1.24489e-05
1.15692e-06
1.57609e-05
4.47866e-06
1.70311e-05
4.21836e-06
1.52082e-05
3.81337e-06
1.24961e-05
2.43765e-06
9.32153e-06
1.50193e-06
6.99652e-06
-1.94668e-07
6.19234e-06
-1.24396e-06
6.12376e-06
-1.43983e-06
6.19442e-06
-1.66223e-06
6.57908e-06
-2.36688e-06
7.53675e-06
-1.89964e-06
9.50461e-06
-1.22398e-06
1.2909e-05
1.44683e-09
1.7298e-05
3.80211e-06
1.92169e-05
6.46991e-06
1.80119e-05
7.61458e-06
1.68157e-05
4.13618e-06
1.54351e-05
2.85495e-06
1.38029e-05
2.02291e-06
1.22935e-05
6.35937e-07
1.11726e-05
-6.91919e-07
1.04802e-05
-1.05061e-06
1.00185e-05
-3.37713e-07
9.55848e-06
3.48432e-07
9.06866e-06
6.33785e-07
8.55015e-06
4.23302e-07
8.14865e-06
3.536e-09
7.876e-06
-3.05537e-07
7.66049e-06
-6.76902e-07
7.58689e-06
-1.26332e-06
7.64745e-06
-1.7122e-06
7.92701e-06
-1.47046e-06
8.10793e-06
-5.57673e-07
8.38994e-06
5.34365e-07
9.68472e-06
2.5117e-06
1.18845e-05
2.67568e-06
1.22851e-05
2.62644e-06
1.14682e-05
2.36004e-06
1.00314e-05
1.68314e-06
8.62855e-06
8.82686e-07
7.52809e-06
3.75319e-07
6.72293e-06
1.02976e-07
6.31412e-06
-2.57058e-07
6.16296e-06
-7.51595e-07
6.00412e-06
-7.0855e-07
5.75443e-06
-7.43594e-07
5.49343e-06
-1.35492e-06
5.68973e-06
-2.15331e-06
6.91579e-06
-1.92829e-06
9.61356e-06
-3.76158e-07
1.35708e-05
4.11606e-06
1.54669e-05
4.51093e-06
1.41771e-05
5.5299e-06
1.32341e-05
2.73835e-06
1.20002e-05
2.4874e-06
1.09277e-05
1.38414e-06
1.02294e-05
-1.48975e-07
9.61389e-06
5.66412e-07
8.7508e-06
2.34513e-06
7.70178e-06
3.23592e-06
6.80854e-06
2.88325e-06
5.90195e-06
3.71067e-06
4.1983e-06
7.31733e-06
2.33152e-06
9.9799e-06
3.22403e-06
1.57242e-06
6.42345e-06
1.63249e-05
6.32316e-06
3.54691e-06
5.99989e-06
2.7809e-06
5.64294e-06
1.70384e-06
5.37741e-06
1.35506e-06
5.19296e-06
1.0969e-06
5.08015e-06
8.16328e-07
5.02095e-06
5.22082e-07
4.97413e-06
4.23168e-07
2.00637e-07
2.9865e-06
1.66449e-06
3.93628e-06
1.96045e-08
6.10825e-06
-6.86257e-08
7.99926e-06
6.56632e-07
7.78938e-06
1.44259e-06
6.35701e-06
1.69745e-06
4.6527e-06
9.98185e-07
3.96544e-06
-2.04645e-07
4.52056e-06
-1.39e-06
6.26409e-06
-9.20103e-07
9.48456e-06
1.01653e-07
1.13187e-05
1.85636e-06
1.00625e-05
2.7893e-06
7.63719e-06
2.35605e-06
5.4636e-06
7.33379e-07
4.38159e-06
-6.01117e-07
4.5595e-06
-9.98652e-07
5.77591e-06
-6.5082e-07
7.83462e-06
1.44202e-07
8.59132e-06
8.7232e-07
8.00719e-06
1.10569e-06
6.53274e-06
-5.9702e-07
5.97957e-06
-1.71444e-06
6.8014e-06
-1.40431e-06
8.33187e-06
1.01473e-07
1.14334e-05
2.59491e-06
1.42931e-05
4.33806e-06
1.3465e-05
4.35662e-06
1.1237e-05
3.44567e-06
8.42776e-06
2.53983e-06
6.46096e-06
5.75118e-07
5.54544e-06
-7.68205e-07
5.07231e-06
-1.17995e-06
5.11748e-06
-1.69164e-06
5.48694e-06
-2.5981e-06
6.14496e-06
-2.38034e-06
7.19265e-06
-1.99764e-06
8.98674e-06
-8.13035e-07
1.30231e-05
1.84273e-06
1.72869e-05
6.42372e-06
1.77851e-05
7.54427e-06
1.66275e-05
5.06755e-06
1.5201e-05
3.43375e-06
1.33671e-05
2.59173e-06
1.16017e-05
1.0189e-06
1.02958e-05
-5.35946e-07
9.61653e-06
-1.04025e-06
9.20373e-06
-2.56106e-07
8.81319e-06
5.2048e-07
8.4435e-06
7.96946e-07
8.0256e-06
6.33715e-07
7.62358e-06
1.97037e-07
7.24936e-06
-1.99428e-07
7.15604e-06
-7.72954e-07
7.53716e-06
-1.65488e-06
8.06778e-06
-2.23648e-06
8.53402e-06
-2.03542e-06
8.68472e-06
-8.28971e-07
8.60457e-06
6.84119e-07
9.14492e-06
2.6606e-06
1.10669e-05
2.97259e-06
1.17881e-05
2.26492e-06
1.11787e-05
2.56307e-06
9.84452e-06
1.9591e-06
8.46473e-06
1.16959e-06
7.4212e-06
6.04716e-07
6.74736e-06
2.97814e-07
6.3119e-06
-1.66734e-07
5.99651e-06
-6.56505e-07
5.75752e-06
-5.38847e-07
5.51614e-06
-5.4522e-07
5.35146e-06
-1.22289e-06
5.4257e-06
-2.20424e-06
5.89482e-06
-2.31845e-06
7.84488e-06
-1.56218e-06
1.21139e-05
3.01288e-06
1.5187e-05
5.47151e-06
1.44705e-05
6.40596e-06
1.36325e-05
3.23197e-06
1.24305e-05
2.92722e-06
1.12958e-05
1.64186e-06
1.05108e-05
-1.63093e-07
9.86012e-06
6.79183e-07
8.91784e-06
2.86811e-06
7.77132e-06
3.90931e-06
6.8354e-06
3.42207e-06
5.90025e-06
4.36984e-06
4.10701e-06
8.66429e-06
2.34024e-06
1.12812e-05
3.76353e-06
1.40279e-06
7.2243e-06
1.83674e-05
6.9911e-06
4.09375e-06
6.63005e-06
3.16279e-06
6.21604e-06
2.12222e-06
5.9273e-06
1.64764e-06
5.72478e-06
1.32565e-06
5.60205e-06
9.8191e-07
5.5375e-06
6.32124e-07
5.48756e-06
5.10031e-07
2.41896e-07
1.59011e-06
1.1447e-06
1.76831e-06
-1.25941e-07
2.03207e-06
-2.73652e-07
2.61742e-06
2.46775e-07
2.79837e-06
9.80576e-07
2.67775e-06
1.29543e-06
2.57206e-06
7.96571e-07
2.59733e-06
-3.08821e-07
2.69426e-06
-1.46385e-06
3.81159e-06
-1.45367e-06
5.63487e-06
-3.45682e-07
6.32692e-06
1.17573e-06
5.90605e-06
2.83233e-06
4.62722e-06
2.45025e-06
3.59031e-06
8.24122e-07
3.10629e-06
-2.55633e-07
3.14135e-06
-9.66967e-07
3.70986e-06
-7.06196e-07
5.14741e-06
5.96888e-07
5.37643e-06
5.86733e-07
4.83949e-06
1.0733e-06
4.38931e-06
-6.70665e-07
4.85007e-06
-2.29611e-06
5.70796e-06
-2.23912e-06
6.20443e-06
-3.34026e-07
7.62583e-06
1.95665e-06
1.06078e-05
3.90456e-06
1.09299e-05
4.14592e-06
9.38541e-06
4.06655e-06
7.39338e-06
3.05575e-06
5.86469e-06
1.40983e-06
4.8947e-06
-4.14799e-07
4.59689e-06
-1.03472e-06
4.84717e-06
-1.90209e-06
5.33813e-06
-2.9812e-06
6.27297e-06
-3.06529e-06
7.43012e-06
-2.94712e-06
8.04056e-06
-1.48009e-06
9.96283e-06
8.37444e-07
1.41948e-05
5.37886e-06
1.65895e-05
7.0853e-06
1.56799e-05
5.65396e-06
1.43519e-05
3.89879e-06
1.24284e-05
3.09948e-06
1.05199e-05
1.42168e-06
9.0951e-06
-2.4792e-07
8.35167e-06
-8.84641e-07
8.1045e-06
-1.73365e-07
8.00478e-06
5.46387e-07
7.80976e-06
9.12836e-07
7.42019e-06
8.95381e-07
6.88431e-06
4.85976e-07
6.65775e-06
-1.51158e-07
7.02712e-06
-1.15247e-06
8.1629e-06
-2.42992e-06
9.26698e-06
-3.13122e-06
9.71327e-06
-2.64317e-06
9.58218e-06
-1.08589e-06
9.15847e-06
1.0427e-06
9.30333e-06
2.86983e-06
1.06169e-05
3.42375e-06
1.1092e-05
2.09685e-06
1.05684e-05
2.71183e-06
9.36565e-06
2.13743e-06
8.1241e-06
1.38039e-06
7.3248e-06
7.67601e-07
6.79317e-06
4.15611e-07
6.36839e-06
-1.36824e-07
6.11309e-06
-6.09441e-07
5.98116e-06
-4.50056e-07
5.89739e-06
-4.59248e-07
5.76299e-06
-1.09606e-06
5.71381e-06
-2.16146e-06
5.89683e-06
-2.4976e-06
6.85043e-06
-2.28191e-06
1.02017e-05
1.74105e-06
1.42577e-05
6.97042e-06
1.44943e-05
6.84095e-06
1.37863e-05
3.7795e-06
1.26612e-05
3.29732e-06
1.14888e-05
1.8784e-06
1.06364e-05
-1.91882e-07
9.97152e-06
7.50456e-07
8.95043e-06
3.42774e-06
7.72858e-06
4.62297e-06
6.77938e-06
3.96579e-06
5.82447e-06
5.06732e-06
3.96961e-06
1.00679e-05
2.35829e-06
1.25913e-05
4.48715e-06
2.23263e-06
8.08366e-06
1.8853e-05
7.68285e-06
4.75665e-06
7.23313e-06
3.63196e-06
6.7729e-06
2.58816e-06
6.47065e-06
1.95496e-06
6.25255e-06
1.57262e-06
6.12088e-06
1.16058e-06
6.05133e-06
7.51684e-07
5.99883e-06
6.0314e-07
2.85769e-07
1.28979e-06
9.95535e-07
1.10193e-06
5.57312e-08
9.39104e-07
-6.39945e-08
9.39362e-07
2.33989e-07
1.22884e-06
6.89382e-07
1.6367e-06
8.62292e-07
1.90484e-06
4.39144e-07
1.95514e-06
-3.79942e-07
1.81345e-06
-1.27256e-06
1.98223e-06