/*--------------------------------*- C++ -*----------------------------------*\
| =========                 |                                                 |
| \\      /  F ield         | OpenFOAM: The Open Source CFD Toolbox           |
|  \\    /   O peration     | Version:  2.3.0                                 |
|   \\  /    A nd           | Web:      www.OpenFOAM.org                      |
|    \\/     M anipulation  |                                                 |
\*---------------------------------------------------------------------------*/
FoamFile
{
    version     2.0;
    format      ascii;
    class       volScalarField;
    location    "0.01";
    object      rho;
}
// * * * * * * * * * * * * * * * * * * * * * * * * * * * * * * * * * * * * * //

dimensions      [1 -3 0 0 0 0 0];

internalField   nonuniform List<scalar> 
5000
(
1.05858
1.05889
1.0554
1.05305
1.05168
1.05018
1.04893
1.0478
1.04689
1.04604
1.0455
1.04538
1.04565
1.04571
1.04583
1.04555
1.04517
1.04474
1.04413
1.04352
1.04254
1.04212
1.04094
1.04133
1.04167
1.04235
1.04329
1.04433
1.04491
1.04545
1.04587
1.04589
1.04623
1.04647
1.04667
1.04568
1.04568
1.04545
1.04548
1.04578
1.0459
1.04611
1.04618
1.04639
1.04653
1.04663
1.04694
1.04711
1.04767
1.04812
1.04867
1.04889
1.04924
1.04923
1.04895
1.04895
1.04788
1.0479
1.04798
1.04891
1.04839
1.04844
1.04821
1.04813
1.04798
1.04782
1.04741
1.04733
1.04741
1.04744
1.04767
1.04779
1.04767
1.04779
1.04782
1.04677
1.04226
1.03291
1.01957
1.00432
0.987658
0.969493
0.95107
0.936539
0.929261
0.920477
0.889314
0.785503
0.550513
0.281023
0.162828
0.96912
1.17585
1.18201
1.18177
1.18139
1.18103
1.18073
1.1805
1.18032
1.06354
1.05904
1.05534
1.05312
1.05165
1.05019
1.04894
1.04783
1.04691
1.04601
1.04551
1.04537
1.04559
1.04573
1.04579
1.04562
1.04516
1.04471
1.0441
1.04355
1.04258
1.04211
1.04097
1.04135
1.04166
1.04238
1.04321
1.04438
1.04491
1.04544
1.04588
1.04597
1.0462
1.04647
1.04667
1.04563
1.04565
1.04543
1.04546
1.04578
1.04587
1.04604
1.04599
1.04606
1.04601
1.04601
1.04642
1.04664
1.04732
1.04784
1.04842
1.0486
1.04881
1.0486
1.04831
1.04845
1.0475
1.04767
1.0478
1.04871
1.04813
1.0479
1.04744
1.04712
1.04697
1.04699
1.04677
1.04673
1.04679
1.04664
1.04669
1.04663
1.04625
1.04573
1.04506
1.04131
1.02835
1.00457
0.972991
0.93781
0.902218
0.867181
0.836208
0.801232
0.759832
0.74765
0.747559
0.692493
0.50797
0.276668
0.15842
0.844122
1.17116
1.18191
1.18176
1.18139
1.18103
1.18073
1.1805
1.18032
1.05866
1.05759
1.05458
1.05274
1.05143
1.05006
1.04883
1.04773
1.04682
1.04594
1.04545
1.04528
1.04545
1.04565
1.04565
1.04549
1.04499
1.04464
1.04399
1.04354
1.04261
1.04213
1.04104
1.04142
1.04168
1.04238
1.04308
1.04445
1.04485
1.04542
1.04585
1.04596
1.04617
1.04642
1.04658
1.04552
1.04556
1.04536
1.04541
1.04571
1.04558
1.04511
1.0429
1.03777
1.03051
1.02554
1.02845
1.03319
1.03758
1.04073
1.04278
1.04261
1.04037
1.03582
1.03352
1.03676
1.03958
1.04234
1.04392
1.04467
1.04234
1.0372
1.02996
1.02368
1.02427
1.02903
1.03358
1.03619
1.037
1.03568
1.03365
1.03275
1.03369
1.03553
1.03671
1.03222
1.0133
0.977089
0.929669
0.878336
0.827595
0.780324
0.742201
0.708175
0.663182
0.623293
0.619987
0.594212
0.447452
0.255597
0.168866
0.949596
1.17498
1.18196
1.18176
1.18138
1.18103
1.18073
1.1805
1.18032
1.05978
1.0569
1.05402
1.05257
1.0514
1.04998
1.04883
1.04782
1.0468
1.04584
1.04538
1.04512
1.04537
1.04558
1.04564
1.0454
1.04488
1.04451
1.04387
1.04349
1.04262
1.04211
1.04117
1.04145
1.04168
1.04238
1.04309
1.04436
1.04478
1.04541
1.04584
1.04596
1.0461
1.04634
1.0464
1.04541
1.04545
1.04524
1.04526
1.0455
1.04477
1.04242
1.03378
1.00946
0.958849
0.898413
0.885172
0.897707
0.932877
0.980453
1.01033
1.01367
1.00432
0.967193
0.920428
0.921091
0.94688
0.982142
1.0114
1.02668
1.02217
0.994425
0.930106
0.846231
0.81707
0.838722
0.894224
0.942992
0.974975
0.985623
0.978858
0.965453
0.968575
0.989483
1.01385
1.01358
0.99657
0.955179
0.89866
0.836761
0.77785
0.724767
0.68345
0.650066
0.609531
0.565109
0.548993
0.519433
0.394282
0.237892
0.198037
1.0201
1.17747
1.18198
1.18175
1.18138
1.18103
1.18073
1.1805
1.18032
1.05816
1.05553
1.05325
1.05194
1.05087
1.04966
1.04859
1.04761
1.04663
1.04564
1.04508
1.04479
1.04525
1.04553
1.04536
1.0452
1.04476
1.04437
1.04378
1.04345
1.04269
1.04218
1.04139
1.04148
1.04171
1.04239
1.04297
1.04429
1.04469
1.04533
1.04573
1.04588
1.04597
1.04614
1.04611
1.04512
1.04515
1.04491
1.04485
1.04485
1.04273
1.0361
1.01584
0.973336
0.907025
0.825139
0.758913
0.750972
0.766626
0.822313
0.908238
0.941243
0.93234
0.886015
0.793049
0.735309
0.745892
0.800981
0.91092
0.980647
0.975693
0.927657
0.827528
0.703511
0.601163
0.564659
0.575155
0.631992
0.755518
0.853656
0.886223
0.884905
0.887662
0.909771
0.960807
0.980518
0.971613
0.934406
0.873966
0.804779
0.739616
0.682116
0.637899
0.604417
0.567202
0.525133
0.503159
0.464198
0.352457
0.226672
0.263181
1.07051
1.17933
1.18198
1.18174
1.18137
1.18102
1.18073
1.1805
1.18032
1.05282
1.05348
1.05256
1.05164
1.05078
1.04967
1.04852
1.04754
1.04643
1.04551
1.04494
1.04465
1.04531
1.04538
1.04522
1.04509
1.04454
1.04417
1.04362
1.04332
1.04267
1.04207
1.04168
1.04143
1.04173
1.04235
1.04292
1.04382
1.04381
1.04386
1.044
1.04449
1.04476
1.04476
1.04449
1.04351
1.04358
1.04333
1.04319
1.04308
1.03983
1.02906
1.0004
0.949551
0.881211
0.802217
0.722178
0.666484
0.660421
0.675689
0.727311
0.791193
0.794969
0.762865
0.677371
0.583515
0.577432
0.607304
0.722024
0.885967
0.911943
0.87434
0.776967
0.655323
0.545496
0.459975
0.406018
0.39821
0.415208
0.491006
0.645305
0.749862
0.788535
0.824169
0.886452
0.936367
0.936215
0.909183
0.851435
0.778002
0.707093
0.643981
0.596184
0.561973
0.526748
0.487366
0.464075
0.420666
0.320155
0.209667
0.359549
1.1094
1.18068
1.18197
1.18173
1.18137
1.18102
1.18072
1.1805
1.18032
1.05172
1.05224
1.05147
1.05076
1.05
1.04912
1.04805
1.04716
1.04612
1.0452
1.04458
1.04426
1.04513
1.04497
1.04489
1.04478
1.04419
1.04395
1.0434
1.04233
1.04086
1.03951
1.04042
1.04013
1.04104
1.04154
1.04103
1.03867
1.03186
1.02061
1.01372
1.02022
1.02713
1.02939
1.02988
1.03058
1.03162
1.03266
1.03462
1.03692
1.03406
1.02054
0.986398
0.929606
0.85523
0.773818
0.69805
0.631274
0.581112
0.567063
0.569836
0.58367
0.586015
0.566211
0.508319
0.432523
0.416756
0.434613
0.519891
0.72692
0.837455
0.815011
0.732748
0.617403
0.509146
0.420793
0.353051
0.312786
0.310802
0.327489
0.380535
0.480281
0.605038
0.699508
0.791468
0.880509
0.895493
0.876979
0.825594
0.751108
0.675791
0.607321
0.556653
0.522281
0.488611
0.451386
0.428677
0.387075
0.291727
0.186924
0.490702
1.13675
1.18147
1.18196
1.18172
1.18136
1.18102
1.18072
1.1805
1.18032
1.05372
1.05262
1.05136
1.05074
1.0496
1.04863
1.04697
1.04564
1.04547
1.04409
1.04387
1.04374
1.04414
1.04281
1.04056
1.0401
1.04067
1.04076
1.03839
1.02967
1.01322
0.994265
1.00366
1.01599
1.02602
1.03098
1.02826
1.01542
0.974158
0.861967
0.740737
0.756219
0.815254
0.85491
0.886326
0.931978
0.960564
0.978603
0.996054
1.01735
1.01888
1.00555
0.965398
0.897059
0.805542
0.709364
0.630683
0.574324
0.530482
0.494289
0.465314
0.44639
0.432773
0.411858
0.375618
0.328721
0.3045
0.311208
0.357377
0.525215
0.740672
0.742557
0.682408
0.574975
0.468731
0.383101
0.318303
0.275731
0.268179
0.27489
0.298413
0.334342
0.380412
0.467482
0.621063
0.798704
0.85439
0.840601
0.795113
0.722011
0.643957
0.57151
0.519046
0.484782
0.452191
0.417399
0.396753
0.35683
0.267202
0.169579
0.63073
1.1527
1.18184
1.18194
1.18171
1.18135
1.18102
1.18072
1.1805
1.18032
1.05595
1.05119
1.04977
1.04837
1.0446
1.03542
1.01919
1.00492
1.01249
1.02505
1.0307
1.03026
1.01999
0.991478
0.941255
0.911967
0.94032
0.963523
0.964536
0.92966
0.858754
0.685698
0.647284
0.735706
0.83277
0.904437
0.961208
0.943536
0.845552
0.653967
0.454776
0.360848
0.37462
0.39192
0.406989
0.466649
0.606085
0.749039
0.862506
0.96761
0.990771
0.977705
0.931867
0.849734
0.740537
0.631734
0.546711
0.493253
0.457262
0.42707
0.398321
0.373207
0.352642
0.330144
0.301472
0.270359
0.248564
0.248796
0.269515
0.371165
0.607437
0.663192
0.623804
0.528923
0.42584
0.344055
0.284626
0.245629
0.240246
0.25225
0.264578
0.26214
0.265452
0.299907
0.398689
0.634266
0.801044
0.798072
0.761038
0.691353
0.612243
0.537281
0.483622
0.449475
0.418209
0.38581
0.367289
0.329702
0.246545
0.160339
0.760528
1.16241
1.18201
1.18192
1.18169
1.18134
1.18102
1.18072
1.1805
1.18032
1.0153
0.959921
0.973119
0.984859
0.96452
0.899239
0.761017
0.594815
0.562079
0.671833
0.7607
0.841177
0.833716
0.731343
0.522857
0.395418
0.400982
0.45703
0.560383
0.631128
0.575313
0.413394
0.309194
0.319491
0.398769
0.568481
0.819795
0.818644
0.719295
0.536659
0.363759
0.269488
0.251502
0.232467
0.226267
0.235862
0.268459
0.369415
0.586336
0.864711
0.943842
0.931497
0.881015
0.786141
0.665158
0.54932
0.463614
0.414693
0.386767
0.364751
0.34242
0.32152
0.301975
0.278786
0.25644
0.241972
0.2317
0.231674
0.240946
0.289442
0.465398
0.57801
0.555112
0.477243
0.383738
0.308634
0.255093
0.223009
0.213235
0.207766
0.203776
0.190474
0.181576
0.19105
0.253895
0.42165
0.709575
0.746642
0.721726
0.658864
0.580132
0.503419
0.448657
0.41576
0.386396
0.355296
0.339646
0.30598
0.230683
0.161356
0.867453
1.1685
1.1821
1.18192
1.18168
1.18134
1.18101
1.18072
1.1805
1.18032
0.181601
0.180179
0.24216
0.392429
0.423397
0.382085
0.281927
0.196326
0.187416
0.215057
0.334121
0.559181
0.561403
0.45068
0.314093
0.208415
0.196797
0.209629
0.283095
0.37792
0.367803
0.29704
0.207941
0.197728
0.220964
0.330128
0.562283
0.659017
0.598289
0.451553
0.309117
0.239172
0.200352
0.180748
0.176914
0.180357
0.187837
0.22095
0.328029
0.623307
0.861181
0.859955
0.811451
0.711028
0.583842
0.464935
0.382643
0.343343
0.324827
0.312001
0.298847
0.284258
0.265833
0.242006
0.236983
0.242457
0.247545
0.242807
0.244776
0.266497
0.381652
0.495142
0.484119
0.422077
0.34078
0.273696
0.22954
0.203713
0.182523
0.173236
0.167945
0.161783
0.159622
0.160604
0.17598
0.297745
0.574132
0.689697
0.676023
0.623417
0.547853
0.469852
0.414432
0.383356
0.355359
0.32601
0.314211
0.285153
0.218118
0.170178
0.951053
1.17259
1.18215
1.18192
1.18166
1.18133
1.18101
1.18072
1.1805
1.18032
0.156289
0.159587
0.163342
0.200636
0.221438
0.204492
0.167721
0.160372
0.159086
0.183069
0.290306
0.372714
0.367493
0.309793
0.207318
0.164461
0.164563
0.189722
0.237488
0.297066
0.267554
0.19541
0.173635
0.176043
0.180286
0.209839
0.349369
0.503181
0.473809
0.368032
0.269732
0.2031
0.169569
0.162326
0.163866
0.175014
0.203289
0.209042
0.233788
0.404387
0.717067
0.758107
0.720696
0.624361
0.497185
0.382852
0.31159
0.284923
0.279683
0.276815
0.271224
0.257799
0.234347
0.229866
0.249232
0.289278
0.293541
0.279354
0.263903
0.276207
0.349922
0.427143
0.41852
0.367063
0.29707
0.241583
0.210005
0.184702
0.166552
0.159683
0.158519
0.158182
0.156009
0.154497
0.15869
0.212997
0.429612
0.625857
0.625379
0.584463
0.514335
0.4359
0.381054
0.351363
0.325266
0.29829
0.290689
0.265976
0.209323
0.195054
1.01269
1.17554
1.18217
1.18192
1.18164
1.18131
1.181
1.18072
1.1805
1.18032
0.156251
0.155324
0.158814
0.162978
0.162597
0.162645
0.157345
0.154116
0.155745
0.164011
0.217529
0.26256
0.256138
0.202828
0.161603
0.156562
0.157457
0.176207
0.212043
0.208058
0.178532
0.162951
0.169838
0.223126
0.247147
0.246943
0.317662
0.40618
0.377851
0.300695
0.228221
0.171254
0.157795
0.155465
0.160864
0.192444
0.245775
0.255036
0.258257
0.325372
0.554312
0.641316
0.614118
0.528806
0.410995
0.313119
0.261685
0.253773
0.254728
0.254888
0.249626
0.230832
0.218472
0.229331
0.295447
0.336271
0.331879
0.309127
0.285179
0.29157
0.341336
0.377465
0.364783
0.316437
0.258121
0.218592
0.191963
0.169951
0.158697
0.15901
0.160157
0.159511
0.157644
0.152983
0.155487
0.183525
0.348705
0.56481
0.574549
0.543189
0.479102
0.401898
0.347493
0.320141
0.296637
0.271963
0.268954
0.247897
0.20239
0.241224
1.05756
1.17772
1.18217
1.18192
1.18163
1.1813
1.18099
1.18072
1.1805
1.18032
0.156594
0.156286
0.155606
0.155139
0.155049
0.154965
0.154888
0.154579
0.154364
0.158284
0.163551
0.177183
0.17269
0.161246
0.158599
0.154806
0.156329
0.159979
0.162041
0.161358
0.158936
0.156235
0.172724
0.241857
0.303063
0.318892
0.344232
0.348527
0.307556
0.25227
0.184114
0.159898
0.154849
0.153475
0.16196
0.209533
0.257558
0.274669
0.277911
0.308869
0.444537
0.528983
0.508352
0.432434
0.33205
0.260161
0.232289
0.231898
0.235888
0.236304
0.228553
0.21026
0.206944
0.237331
0.326374
0.354912
0.349394
0.325028
0.30332
0.308409
0.336144
0.340754
0.320443
0.27346
0.229595
0.200251
0.175553
0.160108
0.160961
0.166792
0.168197
0.167068
0.162079
0.153562
0.156122
0.180675
0.312866
0.516067
0.528449
0.502443
0.442944
0.367811
0.31449
0.29007
0.269317
0.248972
0.249453
0.230998
0.195579
0.31913
1.09561
1.17936
1.18216
1.18192
1.18161
1.18129
1.18099
1.18071
1.1805
1.18032
0.156554
0.156493
0.15638
0.156243
0.156131
0.156074
0.156009
0.155804
0.155341
0.155247
0.158538
0.16093
0.160223
0.157708
0.157098
0.158135
0.158636
0.160384
0.161549
0.160872
0.156277
0.154572
0.169168
0.251729
0.296339
0.312762
0.315465
0.298415
0.259175
0.197677
0.161734
0.162079
0.157715
0.153698
0.162722
0.215802
0.276166
0.290403
0.29243
0.312723
0.39688
0.442598
0.418642
0.347544
0.272439
0.227652
0.215865
0.219003
0.222774
0.221727
0.206909
0.196639
0.203017
0.244241
0.330965
0.360018
0.357068
0.342742
0.325762
0.326295
0.327823
0.315324
0.281268
0.239611
0.209293
0.181208
0.162776
0.161224
0.173903
0.180407
0.17962
0.175786
0.165899
0.153929
0.159777
0.19196
0.313641
0.481604
0.489868
0.464996
0.407949
0.333938
0.282687
0.261552
0.24406
0.229978
0.232446
0.21683
0.18467
0.429388
1.12519
1.18051
1.18214
1.18191
1.18158
1.18127
1.18098
1.18071
1.1805
1.18032
0.156504
0.15648
0.156463
0.156446
0.156447
0.156488
0.156595
0.156649
0.156572
0.156311
0.156097
0.156361
0.157382
0.158795
0.161938
0.165477
0.16636
0.165971
0.165126
0.16359
0.16008
0.156678
0.159928
0.198899
0.269891
0.289916
0.284429
0.246114
0.196136
0.162977
0.170638
0.170659
0.165785
0.157128
0.160523
0.220719
0.285087
0.304153
0.305931
0.323786
0.375368
0.381106
0.346052
0.283787
0.233947
0.197232
0.194186
0.198773
0.198877
0.191573
0.181044
0.179365
0.185866
0.223874
0.290572
0.343044
0.357997
0.354132
0.342517
0.329751
0.312884
0.283482
0.246833
0.217353
0.188093
0.165907
0.161606
0.176078
0.189189
0.189048
0.186735
0.179553
0.165529
0.154665
0.16719
0.216571
0.336067
0.458237
0.459292
0.43182
0.374569
0.301793
0.25289
0.235642
0.223198
0.214653
0.218943
0.204652
0.169074
0.574334
1.14699
1.18128
1.1821
1.1819
1.18156
1.18125
1.18097
1.18071
1.1805
1.18032
0.156465
0.156512
0.156615
0.156814
0.157081
0.157406
0.157819
0.15808
0.158057
0.157973
0.158139
0.158972
0.161166
0.16548
0.171622
0.176763
0.177511
0.176584
0.174903
0.172621
0.169381
0.166001
0.163521
0.162631
0.192339
0.214849
0.205675
0.179415
0.164929
0.180904
0.19022
0.187438
0.17681
0.162247
0.158407
0.211186
0.280208
0.314518
0.323946
0.337945
0.348649
0.331905
0.286639
0.245558
0.192989
0.172621
0.170194
0.171414
0.170322
0.166933
0.164
0.16364
0.166118
0.181169
0.227973
0.29189
0.323945
0.330322
0.32688
0.314638
0.286745
0.251672
0.22416
0.195414
0.169723
0.162465
0.177887
0.193591
0.194309
0.191169
0.18456
0.173681
0.160651
0.156706
0.17746
0.242654
0.371956
0.441479
0.435695
0.402611
0.342487
0.272604
0.228653
0.215417
0.20647
0.203096
0.207552
0.196272
0.16239
0.751879
1.16188
1.18176
1.18207
1.18188
1.18153
1.18124
1.18095
1.1807
1.1805
1.18032
0.156541
0.156963
0.157757
0.158915
0.160336
0.161729
0.162752
0.162832
0.162591
0.162506
0.163351
0.166276
0.172388
0.182528
0.191857
0.194064
0.192845
0.189427
0.185825
0.183661
0.184834
0.190532
0.191988
0.18213
0.168748
0.165375
0.167325
0.176977
0.202068
0.217449
0.216072
0.207034
0.192126
0.172832
0.159363
0.187238
0.263547
0.306686
0.320076
0.325118
0.314997
0.283304
0.250022
0.200364
0.168044
0.159565
0.158997
0.159081
0.158718
0.157818
0.156982
0.156404
0.157117
0.161706
0.179878
0.230975
0.282622
0.292426
0.293014
0.281708
0.253956
0.228535
0.200513
0.173756
0.162422
0.179617
0.197036
0.196642
0.189755
0.178625
0.169749
0.162789
0.157864
0.160409
0.184649
0.26791
0.399901
0.428057
0.415705
0.375521
0.312011
0.24601
0.209719
0.200239
0.195099
0.194743
0.199784
0.189092
0.182002
0.926535
1.17134
1.18202
1.18203
1.18186
1.1815
1.18122
1.18094
1.1807
1.1805
1.18032
0.157355
0.159898
0.164841
0.172187
0.176798
0.178627
0.17816
0.176959
0.175846
0.176206
0.179923
0.189221
0.204762
0.220367
0.223431
0.220725
0.213236
0.204141
0.199542
0.201426
0.212223
0.241044
0.267376
0.266457
0.244068
0.227991
0.233769
0.248364
0.257112
0.254958
0.246508
0.233201
0.215096
0.19097
0.165722
0.164052
0.234556
0.28344
0.294203
0.29335
0.27422
0.252213
0.204969
0.170233
0.160437
0.160986
0.161609
0.160749
0.158657
0.15615
0.154277
0.153255
0.153229
0.155299
0.160767
0.179634
0.218121
0.24909
0.260366
0.25229
0.230385
0.199991
0.175939
0.162406
0.180528
0.20012
0.199233
0.190994
0.172951
0.162969
0.159333
0.158242
0.159452
0.166182
0.187242
0.283954
0.405911
0.416095
0.396954
0.349036
0.282693
0.224508
0.19713
0.188393
0.18692
0.188479
0.194074
0.182878
0.259001
1.044
1.17685
1.18216
1.18199
1.18183
1.18147
1.1812
1.18093
1.1807
1.1805
1.18032
0.166996
0.184902
0.204641
0.22648
0.229565
0.225578
0.219575
0.213423
0.211982
0.215523
0.229667
0.256639
0.277261
0.278695
0.272226
0.258151
0.242486
0.230419
0.231025
0.240592
0.273288
0.334126
0.372111
0.367404
0.350464
0.330634
0.316157
0.307083
0.301219
0.29492
0.28434
0.268197
0.246539
0.217389
0.181469
0.162804
0.180178
0.241376
0.267755
0.263519
0.238628
0.203721
0.169801
0.163075
0.168744
0.170866
0.17048
0.167681
0.16316
0.158565
0.155447
0.153204
0.152196
0.152747
0.155611
0.160123
0.171516
0.189217
0.205075
0.204184
0.191509
0.171333
0.163254
0.182497
0.203585
0.202567
0.194252
0.175076
0.160847
0.157847
0.160259
0.162683
0.165044
0.169997
0.187647
0.287876
0.400846
0.403789
0.377553
0.323501
0.256339
0.208098
0.189808
0.183687
0.183532
0.185744
0.188881
0.175653
0.418851
1.11441
1.17979
1.18221
1.18195
1.18179
1.18143
1.18117
1.18092
1.18069
1.18049
1.18032
0.607235
0.489237
0.45664
0.420699
0.383598
0.349845
0.330523
0.321952
0.326014
0.350346
0.388491
0.399238
0.394963
0.378549
0.35545
0.332504
0.310268
0.304622
0.312179
0.34071
0.401999
0.438465
0.434377
0.42107
0.398835
0.377792
0.364067
0.355738
0.35068
0.342925
0.327703
0.306026
0.280573
0.250072
0.211107
0.177378
0.16341
0.177554
0.202432
0.203916
0.186156
0.164532
0.166542
0.178426
0.186854
0.187317
0.184188
0.176973
0.169133
0.162015
0.156659
0.153829
0.152806
0.153263
0.155343
0.158952
0.160888
0.162022
0.164378
0.164969
0.163153
0.168832
0.192068
0.209059
0.206574
0.195172
0.176262
0.16163
0.156821
0.160958
0.165023
0.166742
0.168086
0.171558
0.186092
0.277231
0.388917
0.388726
0.356003
0.298003
0.233555
0.196882
0.185734
0.183218
0.182999
0.184528
0.182073
0.163784
0.680236
1.15441
1.1812
1.18219
1.18191
1.18175
1.1814
1.18115
1.1809
1.18069
1.18049
1.18032
1.10678
0.974434
0.865829
0.790376
0.734511
0.688982
0.670193
0.665842
0.673524
0.677927
0.673229
0.653856
0.634911
0.612846
0.584205
0.549845
0.518124
0.505435
0.509218
0.517593
0.508561
0.490347
0.465445
0.454359
0.443777
0.433434
0.426088
0.419366
0.409807
0.392015
0.365694
0.336353
0.308133
0.280151
0.248291
0.214295
0.185465
0.169052
0.163286
0.162942
0.165429
0.176433
0.194293
0.203882
0.204807
0.200933
0.191866
0.180761
0.170663
0.162328
0.156429
0.153802
0.154221
0.156973
0.163577
0.170631
0.173999
0.175968
0.177301
0.18072
0.195251
0.213639
0.218957
0.213349
0.196249
0.173306
0.160648
0.15608
0.158998
0.163825
0.166751
0.167906
0.168832
0.171776
0.183864
0.259324
0.370476
0.369215
0.33187
0.272345
0.215773
0.188605
0.183184
0.18279
0.182656
0.182998
0.176291
0.206861
0.963972
1.17276
1.18169
1.18215
1.18187
1.1817
1.18136
1.18112
1.18089
1.18068
1.18049
1.18032
1.16966
1.1498
1.12739
1.10693
1.08779
1.072
1.06052
1.05177
1.04422
1.02792
0.999699
0.964573
0.927963
0.876438
0.811036
0.749113
0.703059
0.669543
0.622085
0.54407
0.493796
0.51488
0.557218
0.578811
0.568848
0.550432
0.529268
0.502587
0.467739
0.42577
0.384107
0.348246
0.319336
0.29584
0.274336
0.253167
0.231647
0.2122
0.200358
0.197138
0.203427
0.215807
0.222491
0.221559
0.215165
0.203179
0.190394
0.178387
0.167561
0.158867
0.154629
0.15471
0.157624
0.168814
0.188179
0.206925
0.220545
0.227879
0.232956
0.237385
0.2364
0.231787
0.218091
0.194062
0.170462
0.157277
0.155137
0.157168
0.160532
0.162512
0.164169
0.165802
0.167191
0.169862
0.180922
0.241602
0.346663
0.344969
0.30621
0.246807
0.202501
0.183173
0.180634
0.1816
0.181851
0.180521
0.169454
0.448057
1.10749
1.17946
1.18182
1.18209
1.18181
1.18165
1.18132
1.18109
1.18087
1.18068
1.18049
1.18032
1.17336
1.17182
1.16974
1.16769
1.16582
1.16389
1.16029
1.15217
1.13754
1.09392
0.994922
0.85014
0.712845
0.604705
0.537036
0.539619
0.569174
0.578653
0.536159
0.497181
0.540623
0.68876
0.790435
0.788723
0.761687
0.710074
0.644967
0.57252
0.499064
0.435692
0.385911
0.348118
0.319925
0.29892
0.283667
0.271813
0.260409
0.251017
0.244204
0.240565
0.239982
0.239023
0.233836
0.22376
0.211099
0.197018
0.182696
0.170199
0.160024
0.154695
0.154703
0.157524
0.171831
0.202561
0.241462
0.264794
0.270416
0.266225
0.261316
0.251311
0.23179
0.206516
0.183933
0.164986
0.155339
0.152962
0.155776
0.156234
0.156325
0.156453
0.157023
0.158923
0.161804
0.165821
0.177524
0.227148
0.319113
0.317351
0.280148
0.226112
0.19291
0.179251
0.176118
0.179294
0.180171
0.172899
0.176168
0.838403
1.16164
1.18151
1.18181
1.18202
1.18176
1.18158
1.18127
1.18106
1.18086
1.18067
1.18049
1.18032
1.17297
1.17284
1.17265
1.17247
1.17228
1.17146
1.1663
1.14776
1.09024
0.950476
0.750511
0.581257
0.470459
0.405865
0.3834
0.392567
0.433096
0.453323
0.45832
0.521359
0.732203
0.896268
0.910607
0.899069
0.868057
0.800883
0.697455
0.591036
0.496817
0.421093
0.367177
0.332161
0.310372
0.29608
0.285373
0.27717
0.270425
0.264848
0.259844
0.254329
0.247789
0.239807
0.228708
0.213827
0.197197
0.182898
0.170138
0.160398
0.154617
0.154514
0.157509
0.173661
0.215622
0.271123
0.301416
0.300087
0.290995
0.275338
0.251147
0.219862
0.19192
0.170986
0.159048
0.152989
0.15196
0.152314
0.154782
0.155051
0.154362
0.153391
0.152857
0.15381
0.157155
0.162796
0.174233
0.212717
0.288635
0.287548
0.254225
0.209377
0.183133
0.173792
0.169008
0.169537
0.174486
0.164016
0.571889
1.08777
1.1777
1.18198
1.18177
1.18196
1.18169
1.18151
1.18122
1.18103
1.18084
1.18067
1.18049
1.18032
1.17245
1.17243
1.1724
1.17236
1.1723
1.17136
1.16249
1.12989
1.03048
0.810353
0.576036
0.444434
0.390436
0.360528
0.342815
0.346665
0.363831
0.393319
0.462789
0.681761
0.887309
0.933164
0.937908
0.930188
0.898532
0.812282
0.679417
0.542972
0.440071
0.375111
0.335489
0.312859
0.300102
0.291814
0.285327
0.279093
0.272938
0.26654
0.259546
0.251202
0.240955
0.227363
0.210038
0.193621
0.179421
0.168985
0.160708
0.154938
0.154821
0.157889
0.175332
0.225353
0.298561
0.333747
0.329428
0.314123
0.285888
0.243766
0.208049
0.181578
0.165049
0.156633
0.151953
0.151543
0.155347
0.15884
0.160587
0.160338
0.157381
0.153925
0.151704
0.15279
0.15691
0.16305
0.172206
0.199688
0.257015
0.256615
0.22991
0.199002
0.170174
0.163924
0.168719
0.220667
0.173816
0.359231
1.00931
1.16875
1.18128
1.182
1.18172
1.18188
1.18162
1.18144
1.18117
1.18099
1.18082
1.18066
1.18049
1.18032
1.17205
1.17205
1.17204
1.17204
1.17201
1.17118
1.16034
1.11911
0.99416
0.735287
0.497005
0.398436
0.383305
0.3647
0.337282
0.336313
0.352254
0.396372
0.547554
0.805107
0.809919
0.783688
0.815056
0.855807
0.816744
0.713286
0.556639
0.444091
0.37631
0.33464
0.310633
0.299286
0.293554
0.288803
0.283188
0.276551
0.268353
0.257945
0.245839
0.231593
0.216698
0.201389
0.18705
0.175941
0.16791
0.161556
0.156514
0.156295
0.159825
0.177279
0.233217
0.324472
0.366785
0.362272
0.340906
0.299755
0.246877
0.203216
0.177496
0.165583
0.157161
0.15654
0.161104
0.167102
0.176555
0.18165
0.178035
0.170462
0.160907
0.154341
0.154052
0.157206
0.162631
0.166878
0.172058
0.188526
0.227481
0.22798
0.209711
0.189903
0.165641
0.269997
0.587082
0.897645
0.776006
1.0474
1.15891
1.18066
1.18182
1.18192
1.18167
1.1818
1.18155
1.18136
1.18111
1.18096
1.1808
1.18066
1.18049
1.18032
1.1718
1.1718
1.17181
1.17183
1.17185
1.17158
1.16601
1.13121
1.01692
0.760289
0.496828
0.418045
0.453435
0.436716
0.371151
0.346191
0.363386
0.444219
0.694315
0.735722
0.616557
0.534128
0.573518
0.639394
0.608809
0.508639
0.427398
0.375136
0.331867
0.308782
0.299231
0.294838
0.292197
0.288681
0.282081
0.270382
0.25303
0.232663
0.214622
0.199755
0.189352
0.181259
0.175044
0.170591
0.166104
0.161803
0.162077
0.16521
0.180375
0.234772
0.348952
0.407983
0.403564
0.377766
0.328136
0.263792
0.207306
0.183124
0.167277
0.167482
0.174703
0.187315
0.201304
0.214447
0.212579
0.202882
0.189333
0.172544
0.15788
0.15664
0.162917
0.172271
0.174605
0.173084
0.174124
0.181009
0.204485
0.205493
0.195799
0.17858
0.201271
0.873656
1.11449
1.16014
1.15594
1.17426
1.1807
1.18195
1.18181
1.18183
1.18162
1.18172
1.18146
1.18129
1.18106
1.18092
1.18078
1.18065
1.18049
1.18032
1.1717
1.17171
1.17173
1.17175
1.17179
1.17175
1.16978
1.14507
1.05152
0.819986
0.525342
0.470347
0.560137
0.586987
0.476495
0.399107
0.426872
0.63094
0.816618
0.674491
0.457154
0.417426
0.454193
0.4721
0.454198
0.423077
0.381758
0.334905
0.304492
0.301282
0.299429
0.294645
0.292646
0.290012
0.280132
0.254001
0.22467
0.204808
0.194755
0.189931
0.185963
0.180428
0.180665
0.182874
0.182751
0.180315
0.182071
0.190004
0.228168
0.352384
0.464736
0.46434
0.437641
0.379695
0.299196
0.225204
0.188957
0.17904
0.186923
0.207918
0.238079
0.265914
0.265625
0.253412
0.233658
0.206544
0.179487
0.160922
0.15801
0.169255
0.184712
0.186718
0.184566
0.179733
0.175246
0.177464
0.190686
0.190953
0.184376
0.168979
0.299324
1.07051
1.17445
1.18018
1.1814
1.18116
1.18159
1.18184
1.18174
1.18175
1.18157
1.18163
1.18137
1.1812
1.181
1.18089
1.18077
1.18065
1.18049
1.18033
1.17174
1.17174
1.17176
1.17179
1.17183
1.17187
1.17133
1.16065
1.10529
0.943172
0.63722
0.536048
0.6046
0.812849
0.778322
0.671409
0.731554
0.932277
0.800537
0.520792
0.38114
0.383204
0.412588
0.447003
0.464639
0.426783
0.348387
0.303409
0.305965
0.314101
0.297574
0.26103
0.260817
0.267625
0.257783
0.229525
0.208904
0.210067
0.211303
0.208192
0.199444
0.19812
0.212962
0.237691
0.238208
0.227891
0.220794
0.23098
0.315086
0.506929
0.551364
0.529261
0.463582
0.365391
0.262278
0.201643
0.197072
0.214677
0.258542
0.318087
0.344967
0.333588
0.303859
0.267255
0.224184
0.181827
0.160764
0.159849
0.176114
0.194858
0.198358
0.195745
0.192768
0.185553
0.175535
0.17478
0.180787
0.180038
0.175169
0.16073
0.458689
1.11643
1.17888
1.1813
1.18216
1.18185
1.18173
1.18175
1.1817
1.18169
1.18151
1.18152
1.18127
1.18112
1.18095
1.18085
1.18075
1.18065
1.18049
1.18033
1.17186
1.17187
1.17189
1.17192
1.17196
1.17201
1.17192
1.16881
1.14392
1.05664
0.826853
0.723128
0.802158
1.01675
1.08157
1.08446
1.11156
1.07227
0.732997
0.431986
0.360753
0.40442
0.498311
0.57888
0.521834
0.395472
0.312415
0.311992
0.3426
0.324898
0.264916
0.217866
0.221793
0.237496
0.23245
0.222726
0.235771
0.278875
0.275944
0.251373
0.22836
0.236949
0.300712
0.339916
0.325217
0.280155
0.255859
0.281588
0.451054
0.650869
0.653318
0.595891
0.477343
0.332692
0.231052
0.208689
0.234236
0.318324
0.426163
0.444397
0.419216
0.366778
0.305643
0.244934
0.191492
0.160838
0.161484
0.184884
0.201089
0.203792
0.204795
0.203138
0.199201
0.190953
0.177742
0.170399
0.172425
0.171217
0.16783
0.158318
0.657696
1.14681
1.18022
1.18141
1.182
1.18183
1.18172
1.18168
1.18162
1.18161
1.18144
1.1814
1.18117
1.18104
1.18089
1.18082
1.18074
1.18064
1.18049
1.18033
1.17207
1.17208
1.1721
1.17213
1.17217
1.17222
1.17226
1.17175
1.16666
1.14468
1.08033
1.06423
1.10109
1.13918
1.1611
1.16642
1.16613
1.07051
0.705397
0.421884
0.385193
0.469002
0.634346
0.716624
0.548875
0.374676
0.320218
0.345127
0.385756
0.328737
0.239547
0.200634
0.205493
0.220478
0.233947
0.268346
0.356095
0.413726
0.352964
0.290122
0.282442
0.316695
0.448554
0.452896
0.390266
0.298139
0.285709
0.360167
0.611459
0.792136
0.767568
0.644474
0.458239
0.284294
0.218407
0.231708
0.336981
0.539722
0.576153
0.538296
0.452131
0.357193
0.276019
0.208553
0.164185
0.160856
0.18697
0.202242
0.206839
0.208934
0.208528
0.206578
0.200961
0.190913
0.177691
0.166701
0.164382
0.164756
0.161795
0.177435
0.865706
1.16396
1.18107
1.18158
1.182
1.18191
1.18174
1.18166
1.18153
1.1815
1.18135
1.18128
1.18107
1.18096
1.18084
1.18079
1.18073
1.18064
1.18049
1.18033
1.17235
1.17236
1.17238
1.17241
1.17245
1.1725
1.17257
1.1726
1.17221
1.1699
1.16486
1.16474
1.16818
1.17105
1.17248
1.17316
1.17247
1.13912
0.909537
0.559876
0.433506
0.488718
0.665411
0.782683
0.638897
0.412856
0.350631
0.391673
0.429049
0.340751
0.234005
0.196053
0.204236
0.233441
0.291193
0.429677
0.556298
0.616118
0.529565
0.442775
0.429878
0.483614
0.619702
0.565812
0.420597
0.31097
0.322755
0.481984
0.753749
0.921945
0.843923
0.658226
0.406461
0.246361
0.227489
0.286667
0.541954
0.727064
0.697932
0.589744
0.44822
0.328966
0.238569
0.173659
0.158465
0.182732
0.200663
0.207784
0.208973
0.207928
0.206066
0.20402
0.199434
0.189618
0.176172
0.161878
0.157698
0.161209
0.15651
0.286186
1.03837
1.17373
1.18147
1.18152
1.18184
1.18182
1.1817
1.18158
1.18144
1.18136
1.18125
1.18116
1.18098
1.18089
1.1808
1.18076
1.18072
1.18064
1.18049
1.18033
1.17271
1.17272
1.17274
1.17277
1.17281
1.17286
1.17293
1.17301
1.17308
1.17304
1.1729
1.17305
1.17335
1.17364
1.17384
1.17401
1.17396
1.16821
1.12104
0.971322
0.798333
0.664174
0.695622
0.810591
0.805815
0.519173
0.388711
0.432469
0.489636
0.411081
0.270227
0.205205
0.216849
0.273943
0.40849
0.624403
0.776488
0.849932
0.8319
0.775949
0.731409
0.755021
0.806257
0.684708
0.469021
0.345166
0.379399
0.581541
0.822049
0.985496
0.868568
0.612165
0.333639
0.224992
0.242174
0.394301
0.752196
0.846952
0.77824
0.614671
0.43229
0.293079
0.194686
0.157903
0.17337
0.190872
0.203841
0.203804
0.201248
0.197725
0.194093
0.194727
0.192977
0.185376
0.171242
0.156262
0.155947
0.157301
0.169445
0.714097
1.13987
1.17886
1.18161
1.1815
1.18175
1.18172
1.18161
1.18146