/*--------------------------------*- C++ -*----------------------------------*\
| =========                 |                                                 |
| \\      /  F ield         | OpenFOAM: The Open Source CFD Toolbox           |
|  \\    /   O peration     | Version:  2.3.0                                 |
|   \\  /    A nd           | Web:      www.OpenFOAM.org                      |
|    \\/     M anipulation  |                                                 |
\*---------------------------------------------------------------------------*/
FoamFile
{
    version     2.0;
    format      ascii;
    class       volScalarField;
    location    "0.01";
    object      T;
}
// * * * * * * * * * * * * * * * * * * * * * * * * * * * * * * * * * * * * * //

dimensions      [0 0 0 1 0 0 0];

internalField   nonuniform List<scalar> 
5000
(
294
294
294
294
294
294
294
294
294
294
294
294
294
294
294
294
294
294
294
294
294
294
294
294
294
294
294
294
294
294
294
294
294
294
294
294
294
294
294
294
294
294.001
294.002
294.003
294.004
294.005
294.004
294.004
294.003
294.003
294.003
294.003
294.004
294.005
294.005
294.004
294.003
294.002
294.002
294.002
294.003
294.005
294.007
294.008
294.009
294.008
294.007
294.008
294.011
294.016
294.025
294.042
294.073
294.135
294.354
295.061
296.51
298.853
302.153
306.297
311.129
316.784
322.754
327.793
330.374
333.584
345.11
390.074
554.163
1081.34
2023.74
358.999
295.694
294.041
294.001
294
294
294
294
294
294
294
294
294
294
294
294
294
294
294
294
294
294
294
294
294
294
294
294
294
294
294
294
294
294
294
294
294
294
294
294
294
294
294
294
294
294
294
294.001
294.004
294.009
294.022
294.047
294.088
294.141
294.168
294.151
294.12
294.093
294.073
294.066
294.079
294.115
294.159
294.169
294.13
294.088
294.061
294.049
294.055
294.085
294.142
294.217
294.276
294.272
294.225
294.182
294.168
294.186
294.232
294.286
294.351
294.461
294.677
295.086
296.49
300.24
306.651
315.865
327.243
339.786
353.283
366.221
382.044
402.612
409.233
409.382
441.684
600.038
1098.43
2048.27
411.165
296.862
294.065
294.001
294
294
294
294
294
294
294
294
294
294
294
294
294
294
294
294
294
294
294
294
294
294
294
294
294
294
294
294
294
294
294
294
294
294
294
294
294
294
294
294
294.001
294.002
294.004
294.009
294.024
294.082
294.273
294.871
296.26
298.255
299.617
298.924
297.679
296.655
295.934
295.521
295.625
296.305
297.498
298.059
297.181
296.152
295.445
295.063
295.1
295.61
296.933
298.851
300.528
300.33
298.993
297.684
296.958
296.779
297.127
297.742
298.034
297.787
297.375
297.299
298.919
304.383
314.887
330.164
348.936
369.879
391.92
411.763
431.444
460.447
489.694
492.407
513.669
680.027
1191.53
1960.55
365.818
295.917
294.046
294.001
294
294
294
294
294
294
294
294
294
294
294
294
294
294
294
294
294
294
294
294
294
294
294
294
294
294
294
294
294
294
294
294
294
294
294.001
294.001
294.001
294.001
294.002
294.003
294.004
294.008
294.016
294.034
294.085
294.293
294.992
297.282
303.955
319.334
340.308
345.408
340.738
328.298
312.939
304.292
303.433
306.139
317.386
333.02
332.704
323.612
312.358
303.855
299.889
301.04
308.767
329.482
361.438
374.068
364.509
342.174
324.824
314.555
311.236
313.398
317.646
316.699
310.27
303.527
304.016
309.153
321.844
341.305
365.973
393.136
421.487
446.689
469.485
500.367
539.28
555.081
586.54
770.785
1285.55
1694.8
340.621
295.315
294.031
294.001
294
294
294
294
294
294
294
294
294
294
294
294
294
294
294
294
294
294
294
294
294
294
294
294
294
294.001
294.001
294
294
294
294
294.001
294.003
294.009
294.016
294.02
294.017
294.018
294.025
294.033
294.038
294.05
294.074
294.126
294.255
294.822
296.673
302.144
314.667
337.109
370.014
401.816
406.114
398.08
371.686
337.226
325.758
328.877
345.671
385.422
415.069
409.076
381.307
336.103
313.097
314.588
330.299
369.488
433.508
506.112
538.288
528.527
481.647
403.929
358.169
345.319
345.831
344.897
336.673
319.514
313.716
316.864
328.778
350.774
380.26
413.14
447.485
478.099
504.403
537.078
579.828
605.05
655.386
861.423
1359.9
1286.82
324.566
294.856
294.02
294
294
294
294
294
294
294
294
294
294
294
294
294
294
294
294
294
294
294
294
294
294
294
294.001
294.002
294.008
294.02
294.025
294.015
294.009
294.006
294.009
294.029
294.085
294.214
294.394
294.471
294.378
294.319
294.356
294.406
294.418
294.43
294.45
294.524
294.723
295.588
298.56
306.456
322.302
346.812
380.409
421.965
456.868
461.142
451.009
419.528
386.274
384.533
400.406
450.201
521.242
526.654
500.919
422.349
345.653
335.964
349.997
393.11
464.96
556.943
659.058
745.53
760.453
729.91
618.191
472.058
406.969
387.523
370.992
345.633
328.048
328.521
337.636
359.898
393.135
431.893
473.62
511.019
541.846
577.777
624.206
655.357
722.223
947.712
1483.4
949.46
313.135
294.517
294.012
294
294
294
294
294
294
294
294
294
294
294.001
294.003
294.005
294.005
294.003
294.001
294.001
294.002
294.004
294.013
294.026
294.026
294.019
294.024
294.069
294.229
294.529
294.715
294.487
294.298
294.192
294.215
294.524
295.419
297.389
300.663
302.66
300.905
299.023
298.423
298.235
297.811
297.567
297.231
296.774
296.355
297.117
300.872
310.564
329.057
357.169
394.147
436.359
481.977
523.062
535.988
533.584
521.304
519.312
537.146
597.53
700.601
727.144
697.097
583.959
419.815
365.308
374.976
416.447
493.097
596.209
719.539
856.222
966.067
972.971
923.94
796.205
632.081
503.275
436.006
386.347
348.406
343.146
349.757
370.969
406.974
451.646
501.778
546.721
582.474
622.294
673.285
708.716
784.398
1039.89
1678.8
700.641
305.476
294.306
294.007
294
294
294
294
294
294
294.001
294.002
294.003
294.011
294.043
294.133
294.273
294.328
294.207
294.108
294.069
294.083
294.189
294.54
295.112
295.199
294.851
294.784
295.363
297.558
302.043
307.168
304.601
300.833
298.199
297.016
297.962
301.647
313.98
354.073
411.15
402.871
374.173
357.122
344.607
327.809
318.392
312.594
307.401
301.646
301.226
305.035
317.102
340.74
378.825
429.426
482.326
528.998
572.243
613.807
651.751
679.197
700.432
735.692
806.218
920.207
993.876
972.137
847.137
578.352
412.291
410.878
446.746
528.903
646.946
789.762
949.051
1095.51
1127.95
1100.49
1015.36
908.822
799.941
650.032
490.635
383.433
359.379
364.546
384.942
423.145
473.679
532.7
585.858
626.922
671.707
727.372
765.235
850.272
1135.49
1871.99
547.849
301.152
294.191
294.004
294
294
294
294
294
294
294.204
294.309
294.245
294.385
295.138
297.366
301.518
305.165
302.89
299.111
297.441
297.604
300.571
308.593
324.548
334.637
324.618
317.019
316.757
327.957
354.693
442.21
468.381
412.239
365.028
336.698
317.675
323.533
360.516
464.678
665.443
839.319
811.54
778.06
749.416
650.907
500.759
406.067
353.615
316.338
309.149
313.28
328.186
359.386
411.526
481.467
555.229
614.763
662.646
709.015
759.947
810.918
858.005
916.182
1003.1
1117.6
1215.34
1213.76
1121.49
815.698
501.51
459.219
488.168
574.319
711.201
878.631
1061.3
1232.25
1267.46
1210.77
1159.57
1175.82
1164.42
1027.13
764.515
481.331
382.915
383.513
401.893
441.645
497.862
566.162
628.235
675.433
725.51
786.461
826.107
919.543
1231.49
2009.13
455.844
298.648
294.125
294.003
294
294
294
294
294
294
305.434
320.457
315.895
312.004
318.12
340.341
400.927
510.781
539.709
451.984
399.518
362.064
365.466
415.72
579.725
772.056
761.377
665.636
540.785
480.038
526.456
731.243
988.364
956.074
762.639
532.132
371.273
371.851
422.658
564.616
830.402
1126.19
1222.44
1331.16
1369.93
1311.14
1144.89
823.398
517.292
353.02
324.025
328.35
346.716
387.951
457.542
552.556
653.446
729.655
782.084
829.115
882.834
940.076
1001.01
1084.36
1178
1247.12
1302.1
1301.85
1251.79
1043.91
652.263
525.779
547.644
635.719
788.599
979.091
1185.76
1366
1448.82
1494.28
1529.89
1648.72
1737.27
1646.45
1222.86
721.844
431.566
409.311
423.464
463.127
524.985
603.776
676.523
729.417
784.748
853.387
892.673
990.454
1318.11
2027.95
400.422
297.171
294.087
294.002
294
294
294
294
294
294
1756.36
1769.41
1289.99
782.015
722.794
802.143
1097.75
1604.6
1683.35
1448.15
909.866
541.563
539.63
671.307
975.552
1496.33
1588.35
1475.71
1074.44
798.941
823.478
1030.95
1486.41
1562.4
1394.71
923.033
538.899
460.26
506.888
669.601
977.975
1282.06
1549.83
1729.93
1765.55
1716.21
1629.94
1381.55
923.618
487.313
354.469
355.052
375.907
428.295
520.285
651.574
790.346
880.131
929.997
968.133
1010.65
1062.71
1137.09
1248.2
1273.5
1244.52
1219.94
1242.95
1232.05
1132.05
793.436
612.601
626.951
717.654
887.262
1104.86
1324.03
1511.06
1710.29
1818.82
1888.85
1979.33
2017.57
1999.51
1797.63
1034.84
531.901
442.442
451.706
489.069
555.459
646.336
731.677
790.511
852.63
929.38
964.466
1062.5
1397.79
1946.5
365.569
296.218
294.06
294.001
294
294
294
294
294
294
2104.62
2052.94
1969.98
1568.46
1411.4
1535.17
1901.47
2016.51
2017.37
1710.58
1054.19
812.958
825.459
988.372
1505.16
1930.17
1920.23
1632.5
1274.03
1028.42
1150.73
1597.43
1784.8
1750.39
1700.56
1449.94
863.808
600.546
638.201
820.567
1129.96
1529.41
1861.19
1952.76
1917.16
1769.29
1507.31
1449.77
1289.25
746.973
424.62
401.777
422.496
486.902
609.75
789.912
969.641
1059.69
1079.28
1090.47
1113.26
1172.48
1290.45
1313.24
1212.07
1044.72
1029.08
1080.84
1143.03
1092.15
864.409
708.785
723.783
824.374
1017.83
1255.76
1459.58
1684.64
1899.01
2007.22
2040.94
2061.39
2090.69
2100.45
2016.36
1459.19
707.824
486.734
487.763
521.137
591.231
695.939
795.275
861.739
930.81
1015.37
1042.16
1138.88
1462.53
1715.51
343.384
295.558
294.041
294.001
294
294
294
294
294
294
2107.9
2116.12
2064.89
1997.13
1991.96
2001.95
2077.6
2117.08
2084.77
1938.56
1429.69
1173.53
1206.02
1540.18
1982.47
2063.68
2037.02
1780.24
1467
1496.72
1762.5
1942
1832.92
1376.49
1239.85
1229.98
947.467
742.125
798.71
1008.28
1353.35
1845.57
2036.63
2059.02
1961.89
1606.89
1235.66
1183.68
1164.82
925.936
547.345
473.817
494.789
573.54
736.073
965.575
1154.87
1189.6
1184.91
1184.49
1211.46
1313.6
1385.85
1316.74
1023
898.459
910
976.548
1057.88
1034.88
885.738
801.219
829.42
955.569
1173.51
1397.75
1613.9
1853.55
2027.07
2052.63
2049.91
2061.48
2083.76
2131.97
2059.25
1695.63
870.118
538.387
530.178
560.142
634.168
754.198
871.415
945.044
1020.24
1113.46
1126.15
1221.94
1521.19
1396.92
328.776
295.075
294.028
294.001
294
294
294
294
294
294
2103.1
2106.03
2112.8
2116.43
2115.71
2116.56
2116.97
2119.17
2117.16
2052.67
1949.52
1778.74
1830.03
1996.28
2058.82
2107.13
2082.84
2016.24
1973.31
1986.49
2031.4
2052.08
1808.54
1254.52
990.901
942.857
874.106
864.37
983.777
1218.43
1705.46
2023.18
2098.6
2102.95
1952.05
1464.89
1168.66
1095.29
1081.98
974.55
680.381
572.861
596.228
699.688
910.77
1166.26
1304.68
1304.86
1282.5
1282.4
1333.05
1451.12
1469.02
1272.66
925.55
851.486
864.643
928.709
995.06
978.633
899.116
886.682
943.305
1106.7
1326.87
1542.36
1786.04
2000.79
2035.75
1980.89
1966.55
1979.32
2035.48
2129.16
2048.77
1720.56
968.735
588.625
575.745
605.011
685.223
823.494
962.272
1042.65
1123.66
1216.46
1214.23
1311.93
1587.05
1063.75
317.327
294.706
294.018
294
294
294
294
294
294
294
2102.62
2102.83
2103.46
2104.2
2104.74
2104.66
2104.63
2106.05
2110.19
2107.42
2060.63
2022.97
2034.61
2074.52
2086.44
2074.54
2067.59
2043.31
2026.55
2034.78
2088.81
2093.17
1858.5
1217.23
1014.03
960.436
954.312
1014.57
1184.81
1581.55
1991.96
2026.07
2077.99
2115.15
1945.69
1416.14
1089.46
1035.61
1028.55
962.552
760.938
683.159
722.324
869.776
1115.73
1345.94
1417.58
1394.38
1371.89
1384.62
1492.48
1567.97
1512.51
1242.46
912.839
839.466
846.189
881.081
926.891
925.333
921.649
957.885
1075.05
1268.41
1470.9
1724.94
1958.68
2028.86
1906.36
1841.28
1848.97
1887.35
1992.82
2123.77
1993.25
1615.03
965.642
630.341
620.494
653.085
743.33
906.228
1070.29
1156.57
1240.77
1318.05
1303.75
1399.05
1699.33
796.253
308.938
294.442
294.011
294
294
294
294
294
294
294
2102.59
2102.39
2102.04
2101.56
2100.86
2099.69
2097.72
2096.25
2096.34
2098.39
2099.67
2095.38
2083.22
2067.49
2031.2
1990.76
1980.64
1984.8
1994.13
2011.08
2050.7
2082.58
2000.48
1568.4
1135.53
1050.46
1075.13
1252.61
1595.56
1972.29
1933.18
1936.38
1989.51
2082.4
1983.66
1387.18
1055.52
989.107
983.469
929.873
804.03
792.352
873.077
1069.17
1316.45
1573
1599.23
1560.97
1561.51
1625.91
1725.94
1742.56
1677.25
1380.89
1048.66
880.775
844.003
853.121
881.824
915.795
965.439
1065.95
1228.97
1411.66
1656.58
1915.38
2019.01
1884.63
1759.62
1760.86
1781.75
1849.96
1996.79
2106.02
1889.36
1422.51
901.053
662.148
661.208
702.534
809.057
1002.38
1196.89
1285.55
1359.2
1414.45
1385.5
1485.36
1883.43
598.94
302.998
294.259
294.006
294
294
294
294
294
294
294
2102.34
2101.3
2099.57
2096.59
2092.76
2088.25
2082.7
2078.94
2078.53
2078.85
2076.3
2066
2040.21
1990.83
1923.66
1870.78
1863.12
1872.28
1889.18
1912.51
1946.99
1983.3
1999.33
1969.54
1628.52
1447.79
1517.24
1758.21
1964.09
1830.92
1747.42
1772
1873.29
2027.71
2030.54
1462.72
1074.36
956.823
929.212
891.303
865.028
909.234
1057.04
1252.16
1614.4
1823.81
1854.7
1841.2
1855.53
1897.82
1935.4
1939.99
1905.79
1731.87
1358.11
1043.64
933.261
914.375
923.874
959.878
1054.05
1204.82
1366
1590.25
1866.25
2005.85
1867.12
1721.49
1715.23
1742.2
1801.9
1909.1
2047.92
2060.13
1760.62
1257.25
814.475
687.035
696.441
752.991
884.139
1109.74
1325.95
1410.62
1474.04
1498.9
1463.97
1554.39
2006.46
459.802
299.048
294.143
294.003
294
294
294
294
294
294
294
2100.98
2095.36
2085.36
2071.12
2053.87
2037.1
2024.82
2023.33
2025.5
2025.88
2015.78
1982.08
1915.85
1814.92
1730.18
1711.09
1721.29
1750.86
1783.2
1803.25
1792.57
1742.02
1730.38
1815.51
1931.01
1949.95
1939.33
1860.65
1649.41
1535.94
1545.44
1610.7
1730.87
1913.89
2043.67
1671.14
1149.85
981.405
940.57
926.47
957.453
1068.43
1227.39
1552.99
1885.86
2013.38
2028.68
2028.11
2035.01
2046.93
2056.56
2059.98
2043.32
1969.93
1747.2
1340.05
1080.86
1036.68
1032.81
1074.73
1196.15
1341.57
1548.07
1818.04
2001.46
1850.89
1692.82
1695.91
1754.74
1859.12
1949.11
2020.19
2060.08
1985.31
1676.49
1131.78
757.852
708.394
729.46
806.878
970.064
1230.67
1449.81
1524.06
1565.59
1568.01
1524.34
1623.45
1830.82
374.321
296.622
294.073
294.002
294
294
294
294
294
294
294
2090.64
2060.05
2002.61
1922.01
1874.35
1855.63
1859.61
1870.98
1881.62
1877.54
1840.53
1754.19
1625.99
1514.18
1493.72
1511.27
1562.41
1629.46
1665.62
1650.72
1569.96
1388.14
1255.18
1259.75
1373.09
1466.96
1432.34
1349.87
1305.05
1316.04
1360.25
1435.67
1552.65
1741.17
1986.31
1941.85
1316.61
1068.64
1025.15
1029
1105.19
1217.65
1517.62
1861.17
2022.53
2035.35
2031.74
2041.62
2065.5
2093.22
2112.45
2120.47
2112.98
2073.94
1985.7
1752.48
1424.83
1237.55
1179.3
1216.82
1339.06
1555.27
1795.4
1997.45
1841.87
1668.32
1674.92
1744.09
1916.19
2017.3
2043.82
2039.61
2002.95
1893.22
1644.26
1066.21
746.64
728.627
763.611
867.525
1070.55
1350.95
1546.77
1625.69
1639.1
1624.36
1574.35
1693.57
1305.18
332.658
295.271
294.034
294.001
294
294
294
294
294
294
294
1978.69
1798.21
1631.89
1478.8
1458.66
1482.98
1521.73
1563.72
1573.69
1548.52
1455.89
1306.64
1211.64
1205.35
1233.07
1298.31
1379.63
1449.63
1446.02
1390.35
1228.52
1009.97
909.144
920.521
964.001
1020.5
1066.4
1097.45
1118.66
1142.32
1184.03
1253.45
1360.46
1536.94
1827.99
2002.42
1747.01
1278.35
1144.59
1162.72
1290.76
1531.12
1867.88
1997.4
1957.25
1936.43
1940.67
1970.93
2021.14
2073.21
2107.92
2131.82
2138.18
2123.54
2077.07
2002.06
1846.31
1660.02
1523.26
1529.08
1638.4
1851.64
1990.52
1822.69
1641.02
1648.88
1716.24
1894.72
2039.49
2044.59
1989.67
1945.23
1906.22
1836.74
1637.12
1051.41
755.95
750.768
802.496
935.464
1181.04
1461.57
1610.31
1669.88
1671.92
1650.69
1625.78
1790.24
816
311.82
294.556
294.014
294
294
294
294
294
294
294
294
563.919
697.1
745.687
807.827
883.981
967.025
1021.98
1048.32
1035.37
964.903
872.029
848.912
857.807
894.099
950.785
1014.76
1085.61
1105.24
1079.14
990.885
843.017
774.335
781.481
805.679
849.677
896.044
929.309
950.866
964.583
986.184
1031.13
1102.42
1199.77
1341.82
1580.98
1867.44
1986.86
1777.05
1542.75
1530.87
1687.26
1941.19
1967.5
1859.74
1779.52
1775.1
1803.87
1873.78
1955.38
2034.76
2095.87
2126.21
2135.76
2128.73
2101.79
2054.01
2018.57
1991.49
1947.26
1939.32
1977.29
1946.71
1737.1
1599.48
1618.1
1708.96
1882.89
2033.27
2055.8
1967.2
1902.39
1878.14
1859.63
1813.97
1651.86
1091.97
778.881
779.755
850.567
1015.22
1297.8
1550.09
1649.57
1674.72
1677.05
1663.61
1695.55
1970.68
507.219
301.074
294.21
294.005
294
294
294
294
294
294
294
294
311.955
353.689
397.304
434.598
467.043
497.33
510.967
514.164
508.306
504.98
508.379
523.142
538.454
557.482
584.319
620.165
657.393
673.587
668.678
658.074
669.569
693.992
730.377
747.881
765.443
783.465
796.904
809.663
828.399
865.416
926.457
1005.39
1095.15
1201.53
1350.93
1558.37
1790.72
1940.57
1979.86
1980.18
1971.16
1874.5
1714.81
1636.4
1629.18
1659.46
1734.73
1836.43
1938.92
2031.12
2098
2126.22
2121.33
2090.24
2015.95
1939.76
1904.16
1883.58
1868.69
1836.63
1709.8
1566.49
1529.44
1568.47
1700.12
1913.25
2044.19
2068.37
1994.45
1917.62
1876.34
1860.83
1848.45
1810.73
1674.53
1167.59
817.277
820.644
911.769
1110.8
1407.93
1624.46
1677.13
1679.9
1680.66
1681.36
1763.78
1622.85
359.856
296.396
294.069
294.002
294
294
294
294
294
294
294
294
295.168
300.188
306.056
311.612
316.991
321.564
324.961
327.592
329.895
335.026
344.327
356.665
370.516
391.965
423.111
457.533
487.012
511.012
549.342
626.664
689.24
661.573
612.249
589.852
600.084
619.907
644.39
678.137
727.831
798.255
883.039
971.857
1057.65
1139.45
1226.12
1325.61
1444.93
1573.59
1664.31
1690.49
1639.82
1548.36
1503.45
1509.76
1553.3
1641.73
1747.52
1859.6
1972.39
2070.01
2117.14
2116.15
2083.6
1959.43
1769.33
1615.4
1518.99
1471.76
1440.45
1414.33
1420.03
1447.48
1535.51
1718.64
1942.92
2080.52
2078.3
2021.71
1966.49
1937.9
1916.28
1892.31
1872.77
1836.84
1706.71
1253.95
872.837
877.684
987.774
1226.34
1506.3
1679.71
1707.8
1694.22
1689.96
1712.85
1868.76
764.159
313.737
294.72
294.02
294
294
294
294
294
294
294
294
294
294.072
294.439
294.941
295.433
295.878
296.339
297.228
299.28
303.068
314.993
345.899
403.889
480.383
564.782
634.627
631.659
599.451
589.821
635.722
684.625
630.645
497.097
434.134
435.111
450.378
482.662
530.701
596.793
683.065
780.465
878.994
972.181
1055.73
1127.97
1186.9
1237.15
1289.65
1336.5
1372.73
1393.02
1396.48
1402.2
1432.66
1495.29
1582.1
1691
1817.71
1943.53
2056.33
2116.06
2116.08
2084.76
1927.37
1648.89
1391.17
1271.84
1246.07
1265.18
1288.33
1338.25
1447.51
1618.69
1808.91
2001.49
2102.14
2106.92
2043.15
2035.42
2046.59
2047.19
2034.1
1998.63
1951.05
1892.4
1745.76
1335.39
947.589
953.44
1079.4
1340.48
1591.53
1724.89
1765.43
1730.98
1714.09
1813.63
1877.02
412.915
299.215
294.184
294.005
294
294
294
294
294
294
294
294
294
294.004
294.03
294.068
294.101
294.133
294.326
295.606
300.322
315.971
361.777
456.594
587.098
722.504
834.971
882.802
862.686
783.639
749.396
741.431
653.479
468.047
383.562
377.656
382.476
396.005
428.807
491.436
578.461
686.128
806.955
922.775
1017.69
1087.36
1138.48
1180
1213.92
1243.27
1268.68
1292.48
1319.83
1353.81
1397.74
1463.68
1562.34
1689.29
1815.53
1943.84
2051.69
2116.53
2117.73
2084.57
1908.28
1552.47
1243.04
1121.24
1126.09
1160.35
1224.55
1339.09
1523.53
1736.67
1937.2
2067.16
2130.36
2122.75
2113.09
2086.19
2089.65
2107.15
2117.64
2115.25
2085.5
2021.74
1934.87
1784.26
1429.8
1047.34
1051.78
1189.66
1452.58
1695.37
1799.22
1872.23
1877.33
1805.81
1963.7
601.791
319.369
295.13
294.039
294.001
294
294
294
294
294
294
294
294
294
294
294.002
294.005
294.008
294.021
294.251
296.472
304.935
333.984
423.295
592.245
763.855
867.138
937.4
984.674
974.057
929.225
861.156
734.436
502.098
387.366
368.657
366.865
369.918
382.811
422.931
504.33
628.764
772.746
903.553
1007.72
1078.81
1123.54
1154.64
1180.17
1205.79
1232.18
1260.9
1293.96
1335.81
1391.06
1471.77
1589.24
1718.89
1848.56
1955.84
2047.93
2112.77
2114.08
2079.97
1891.06
1487.49
1131.67
1015.22
1028.24
1077.09
1180.58
1378.44
1606.88
1830.55
2001.56
2096.16
2143.54
2145.44
2102.58
2066.21
2048.39
2052.33
2086.25
2123.82
2140.51
2104.57
2025.87
1930.97
1807.51
1529.28
1176.63
1178.5
1317.12
1537.39
1859.92
1957.54
1946.94
1521.64
1898.31
947.828
343.485
297.426
294.195
294.007
294
294
294
294
294
294
294
294
294
294
294
294
294.001
294.001
294.01
294.222
296.951
307.78
345.963
465.755
684.491
850.014
882.855
926.9
1000.42
1003.3
959.034
854.697
622.796
426.318
423.885
437.918
421.365
401.634
420.631
480.707
613.544
765.798
900.62
1010.07
1086.22
1126.4
1147.9
1166.31
1188.82
1216.55
1252.64
1301.75
1364.02
1445.39
1541.57
1654.63
1776.15
1882.7
1967.11
2038.15
2095.4
2097.63
2057.75
1871.26
1438.68
1043.4
925.815
937.151
994.473
1127.38
1361.55
1643.5
1870.21
1995.86
2090.99
2097.98
2044.4
1978.51
1880.13
1829.86
1864.67
1942.01
2047.15
2117.28
2099.64
2032.62
1941.4
1877.65
1807.85
1627.56
1331.6
1328.21
1448.54
1626.66
1986.17
1251.92
585.409
385.403
446.074
330.771
299.698
294.393
294.022
294.001
294
294
294
294
294
294
294
294
294
294
294
294
294
294
294.003
294.081
295.485
304.491
338.292
450.646
684.691
810.953
748.966
777.125
911.22
975.367
930.38
764.513
493.164
465.913
554.47
638.5
595.485
535.212
561.713
670.263
795.006
903.275
1018.18
1092.43
1126.49
1142.92
1153.06
1166.76
1193.33
1243.5
1326.29
1438.77
1555.65
1667.16
1754.93
1829.72
1891.34
1937.82
1986.83
2035.18
2032
1997.39
1840.5
1429.16
971.815
834.242
843.274
899.581
1032.21
1276.63
1612.17
1815.55
1976.99
1974.85
1898.72
1777.84
1659.4
1561.03
1573.95
1645.97
1758.46
1920.03
2077.46
2061.61
1949.09
1817.21
1782.14
1795.95
1781.22
1702.42
1487.18
1479.31
1560.6
1744.37
1664.57
395.62
311.221
299.171
300.566
295.749
294.269
294.027
294.002
294
294
294
294
294
294
294
294
294
294
294
294
294
294
294
294.001
294.022
294.531
300.839
327.292
418.298
648.19
722.506
608.76
581.447
713.571
848.884
794.887
541.818
420.402
507.582
743.723
813.073
748.649
720.92
748.859
802.89
887.898
1009.08
1107.31
1118.91
1125.76
1143.63
1151.31
1161.52
1201.38
1321.34
1488.2
1627.29
1707.96
1749.56
1785.35
1837.61
1835.59
1814.94
1816.44
1839.98
1823.41
1751.18
1468.7
962.434
734.24
734.966
778.948
895.129
1129.39
1488.23
1761.99
1854.76
1780.83
1608.38
1410.94
1267.25
1268.51
1327.69
1436.32
1617.87
1850.37
2042.4
2039.41
1861.64
1678.42
1646.75
1665.16
1715.4
1766.74
1741.06
1604.74
1603.46
1671.14
1861.99
1131.97
323.746
295.7
294.26
294.239
294.067
294.01
294.001
294
294
294
294
294
294
294
294
294
294
294
294
294
294
294
294
294
294.005
294.156
296.857
311.573
364.401
536.22
635.566
564.743
422.098
440.582
509.608
468.389
368.92
428.775
654.495
888.671
884.087
822.56
760.616
732.417
796.115
970.901
1111.07
1102.14
1074.41
1132.6
1286.58
1287.65
1255.85
1302.45
1457.66
1596.45
1587.99
1579.25
1602.1
1669.76
1680.71
1568.23
1410.45
1407.66
1469.48
1515.26
1450.87
1073.17
674.21
620.914
646.455
736.206
929.349
1283.7
1655.53
1692.51
1559.11
1302.31
1064.42
983.454
1016.18
1112.95
1260.85
1495.08
1828.07
2041.62
2003.91
1778.34
1578.55
1535.01
1553.61
1580.25
1650.91
1762.99
1773.89
1706.72
1716.21
1774.9
1985.93
745.964
310.604
294.637
294.031
294.008
294.002
294
294
294
294
294
294
294
294
294
294
294
294
294
294
294
294
294
294
294
294.001
294.041
294.838
301.203
325.8
414.952
473.543
427.62
338.554
318.559
317.761
310.147
321.414
467.711
786.219
937.791
838.796
683.757
590.298
653.678
857.791
1079.79
1081.32
987.118
1039.61
1268.17
1532.84
1506.63
1410.17
1439.82
1500.62
1420.42
1206.85
1219.36
1335.05
1465.37
1414.16
1122.07
995.854
1039.87
1202.57
1313.54
1197.02
755.793
527.42
525.547
575.385
715.408
1018.39
1451.59
1601.72
1432.83
1063.55
799.87
767.755
812.885
926.383
1106.67
1372.37
1740.36
2041.28
1975.36
1682.99
1519.95
1486.25
1477.37
1489.7
1521.64
1595.47
1737.24
1829.04
1806
1821.31
1868.95
2058.55
523.688
302.463
294.341
294.014
294.001
294
294
294
294
294
294
294
294
294
294
294
294
294
294
294
294
294
294
294
294
294
294.008
294.155
295.449
301.084
318.824
323.619
312.956
302.656
297.044
295.742
295.852
321.989
485.783
804.736
879.73
725.608
539.524
478.562
622.119
904.342
1054.19
980.01
879.167
1027.82
1398.37
1659.46
1621.74
1515.31
1430.91
1252.72
951.009
821.339
959.346
1161.45
1192.3
1066.68
759.236
752.205
870.297
1131.89
1179.94
941.698
560.675
434.685
448.449
532.715
744.598
1186.9
1532.69
1447.77
1005.99
634.498
595.121
636.239
754.947
950.682
1222.14
1603.46
2008.11
1985.02
1658.97
1504.69
1461.91
1446.32
1448.97
1463.18
1506.69
1595.37
1738.52
1879.78
1914.19
1907.82
1953.2
1873.49
399.649
298.112
294.17
294.007
294
294
294
294
294
294
294
294
294
294
294
294
294
294
294
294
294
294
294
294
294
294
294.001
294.015
294.136
294.737
296.028
296.09
295.263
294.585
294.263
294.132
294.339
302.89
378.253
609.863
783.811
697.009
514.81
438.839
535.93
822.555
964.99
866.154
792.322
992.489
1430.47
1696.63
1631.35
1433.9
1157
791.412
614.389
555.747
644.908
768.686
791.35
705.169
552.876
604.672
808.842
1086.36
1047.8
708.071
456.354
374.276
408.426
521.753
837.346
1364
1473.5
1177.52
631.852
473.373
492.878
581.708
761.432
1030.23
1408.1
1909.24
2029.74
1699.1
1516.32
1455.3
1446.29
1453.61
1467.44
1482.32
1519.1
1608.28
1758.08
1949.31
2013.6
1959.14
2040.28
1181.2
333.949
295.672
294.067
294.003
294
294
294
294
294
294
294
294
294
294
294
294
294
294
294
294
294
294
294
294
294
294
294
294.001
294.009
294.047
294.11
294.107
294.065
294.032
294.015
294.008
294.053
295.512
307.827
354.634
430.305
515.786
492.873
424.014
426.523
657.193
872.617
786.171
696.165
826.27
1244.07
1623.93
1539.81
1227.75
831.53
548.443
442.579
404.892
413.584
442.995
469.587
455.181
426.732
501.283
726.95
981.27
894.817
588.888
418.96
350.459
396.975
560.301
1015.38
1489.14
1386.84
862.83
457.768
407.309
442.774
558.529
788.927
1152.99
1713.46
2060.04
1803.45
1600.79
1484.85
1485.37
1505.81
1534.22
1565.48
1559.8
1576.59
1652.44
1820.29
2036.54
2042.06
2026.16
1949.49
482.628
304.511
294.466
294.02
294.001
294
294
294
294
294
294
294
294
294
294
294
294
294
294
294
294
294
294
294
294
294
294
294
294
294
294.002
294.005
294.004
294.003
294.001
294.001
294
294.006
294.098
294.965
298.863
310.355
329.982
335.525
326.356
338.181
505.642
780.981
739.275
658.431
692.786
956.806
1446.4
1347.31
950.283
626.713
459.019
387.166
362.138
345.552
342.222
344.329
344.868
348.765
404.786
570.098
828.708
789.664
584.348
428.061
344.786
405.9
622.751
1202.62
1534.68
1251.08
633.612
395.895
371.518
413.857
549.689
831.532
1332.19
2008.35
1925.69
1709.33
1604.89
1551.5
1572.04
1593.03
1601.13
1621.46
1638.37
1673.8
1746.53
1919.5
2071.15
2027.55
2046.97
545.775
317.962
295.929
294.095
294.004
294
294
294
294
294
294
294
294
294
294
294
294
294
294
294
294
294
294
294
294
294
294
294
294
294
294
294
294
294
294
294
294
294
294
294.004
294.043
294.253
295.133
296.822
297.24
296.842
299.263
344.947
508.36
664.299
668.941
610.352
617.841
1010.35
1300.23
1076.57
709.124
497.629
404.764
376.364
345.88
318.277
309.236
308.412
310.928
332.633
406.955
620.224
715.975
660.395
504.783
351.583
424.947
686.931
1311.11
1534.66
1171.38
558.877
378.79
350.817
394.753
538.765
856.896
1468.57
2079.65
1818.51
1836.33
1822.96
1711.21
1760.95
1710.03
1659.84
1684.89
1752.95
1806
1868.56
2006.46
2073.01
2015.58
1383.23
347.944
297.371
294.246
294.015
294.001
294
294
294
294
294
294
294
294
294
294
294
294
294
294
294
294
294
294
294
294
294
294
294
294
294
294
294
294
294
294
294
294
294
294
294
294.002
294.011
294.06
294.161
294.189
294.182
294.356
298.234
338.151
428.696
563.304
553.183
476.017
693.378
1160.52
1174.28
993.052
666.976
496.503
486.004
425.902
338.292
301.956
297.828
298.485
304.762
330.141
416.845
594.835
612.026
529.646
365.986
439.219
711.253
1346.46
1566.16
1224.4
588.535
377.659
337.04
373.445
495.585
812.815
1487.55
2084.54
1997.53
2072.21
2062.86
2002.86
2022.19
2036.8
1927.53
1808.24
1849.02
1880.88
1963.3
2080.3
2078.92
2049.81
890.902
321.979
295.235
294.053
294.002
294
294
294
294
294
294
294
294
294
294
294
294
294
294
294
294
294
294
294
294
294
294
294
294
294
294
294
294
294
294
294
294
294
294
294
294
294
294
294.002
294.007
294.008
294.009
294.016
294.225
297.373
317.406
359.818
374.174
350.131
368.081
546.686
882.636
920.109
853.666
734.385
602.821
473.191
361.034
305.8
295.332
294.822
296.393
303.131
330.554
407.519
487.508
466.028
369.706
434.861
665.179
1202.94
1590.3
1445.44
796.676
392.609
328.375
357.588
461.679
762.427
1427.01
2122.99
2107.55
1669.19
1491.9
1729.86
1007.21
1073.93
1625.68
2028.56
1946.87
2023.2
2068.95
1577.76
2115.22
2037.3
506.186
302.917
294.354
294.013
294
294
294
294
294
294
294
294
294
294
294
294
294
294
294
294
294
294
294
294
294
294
294
294
294
294
294
294
294
294
294
294
294
294
294
294
294
294
294
294
294
294
294
294.001
294.008
294.158
295.52
299.038
300.777
299.913
299.408
308.658
366.176
424.636
486.637
464.762
417.667
373.021
337.892
307.657
295.536
294.146
294.162
295.272
302.778
326.06
391.344
407.308
362.502
393.338
549.192
935.232
1411.77
1385.8
865.779
407.036
322.973
351.846
455.812
785.673
1477.23
2050.04
1913.62
952.222
699.064
550.915
370.816
360.222
571.207
1997.88
2064.41
1427.71
1334.39
623.79
1190.27
531.186
321.919
295.339
294.051
294.002
294
294
294
294
294
294
294
294
294
294
294
294
294
294
294
294
294
294
294
294
294
294
294
294
294
294
294
294
294
294
294
294
294
294
294
294
294
294
294
294
294
294
294
294
294
294.005
294.058
294.229
294.32
294.305
294.278
294.551
296.26
298.344
306.279
312.396
314.443
310.618
302.853
296.767
294.372
294.027
294.01
294.072
295.045
305.261
343.686
385.73
357.948
314.874
371.722
575.68
1033.32
1073.34
684.808
396.321
316.856
347.737
432.191
632.232
786.678
1294.34
1904.16
935.205
523.153
385.871
328.785
309.051
349.806
1077.54
953.979
527.51
1201.77
464.353
328.389
301.445
294.768
294.079
294.004
294
294
294
294
294
294
294
294
294
294
294
294
294
294
294
294
294
294
294
294
294
294
294
294
294
294
294
294
294
294
294
294
294
294
294
294
294
294
294
294
294
294
294
294
294
294
294
294.001
294.006
294.009
294.009
294.009
294.015
294.045
294.095
294.736
295.375
295.411
295.007
294.543
294.237
294.08
294.007
294.001
294.007
294.193
298.595
321.423
334.492
323.752
302.356
327.906
477.844
807.742
714.145
470.383
370.459
309.89
327.012
396.461
388.704
400.735
728.331
1958.81
1203.92
660.264
462.063
378.753
303.786
321.47
499.174
513.493
441.148