/*--------------------------------*- C++ -*----------------------------------*\
| =========                 |                                                 |
| \\      /  F ield         | OpenFOAM: The Open Source CFD Toolbox           |
|  \\    /   O peration     | Version:  2.3.0                                 |
|   \\  /    A nd           | Web:      www.OpenFOAM.org                      |
|    \\/     M anipulation  |                                                 |
\*---------------------------------------------------------------------------*/
FoamFile
{
    version     2.0;
    format      ascii;
    class       volScalarField;
    location    "0.01";
    object      thermo:psi;
}
// * * * * * * * * * * * * * * * * * * * * * * * * * * * * * * * * * * * * * //

dimensions      [0 -2 2 0 0 0 0];

internalField   nonuniform List<scalar> 
5000
(
1.04958e-05
1.04958e-05
1.04958e-05
1.04958e-05
1.04958e-05
1.04958e-05
1.04958e-05
1.04958e-05
1.04958e-05
1.04958e-05
1.04958e-05
1.04958e-05
1.04958e-05
1.04958e-05
1.04958e-05
1.04958e-05
1.04958e-05
1.04958e-05
1.04958e-05
1.04958e-05
1.04958e-05
1.04958e-05
1.04958e-05
1.04958e-05
1.04958e-05
1.04958e-05
1.04958e-05
1.04958e-05
1.04958e-05
1.04958e-05
1.04958e-05
1.04958e-05
1.04958e-05
1.04958e-05
1.04958e-05
1.04958e-05
1.04958e-05
1.04958e-05
1.04958e-05
1.04958e-05
1.04958e-05
1.04958e-05
1.04957e-05
1.04957e-05
1.04956e-05
1.04956e-05
1.04956e-05
1.04957e-05
1.04957e-05
1.04957e-05
1.04957e-05
1.04957e-05
1.04957e-05
1.04956e-05
1.04956e-05
1.04957e-05
1.04957e-05
1.04957e-05
1.04957e-05
1.04957e-05
1.04957e-05
1.04956e-05
1.04956e-05
1.04955e-05
1.04955e-05
1.04955e-05
1.04955e-05
1.04955e-05
1.04954e-05
1.04952e-05
1.04948e-05
1.04942e-05
1.0493e-05
1.04906e-05
1.04822e-05
1.04552e-05
1.04003e-05
1.03125e-05
1.01912e-05
1.00425e-05
9.87806e-06
9.69611e-06
9.51094e-06
9.3611e-06
9.28613e-06
9.19447e-06
8.88096e-06
7.84035e-06
5.49036e-06
2.80303e-06
1.62382e-06
9.63952e-06
1.17341e-05
1.18008e-05
1.18025e-05
1.18025e-05
1.18025e-05
1.18025e-05
1.18025e-05
1.18025e-05
1.04958e-05
1.04958e-05
1.04958e-05
1.04958e-05
1.04958e-05
1.04958e-05
1.04958e-05
1.04958e-05
1.04958e-05
1.04958e-05
1.04958e-05
1.04958e-05
1.04958e-05
1.04958e-05
1.04958e-05
1.04958e-05
1.04958e-05
1.04958e-05
1.04958e-05
1.04958e-05
1.04958e-05
1.04958e-05
1.04958e-05
1.04958e-05
1.04958e-05
1.04958e-05
1.04958e-05
1.04958e-05
1.04958e-05
1.04958e-05
1.04958e-05
1.04958e-05
1.04958e-05
1.04958e-05
1.04958e-05
1.04958e-05
1.04958e-05
1.04958e-05
1.04958e-05
1.04957e-05
1.04955e-05
1.0495e-05
1.0494e-05
1.04924e-05
1.04904e-05
1.04894e-05
1.049e-05
1.04912e-05
1.04922e-05
1.0493e-05
1.04933e-05
1.04928e-05
1.04914e-05
1.04897e-05
1.04894e-05
1.04908e-05
1.04924e-05
1.04935e-05
1.04939e-05
1.04937e-05
1.04926e-05
1.04904e-05
1.04875e-05
1.04852e-05
1.04854e-05
1.04872e-05
1.04889e-05
1.04894e-05
1.04887e-05
1.04869e-05
1.04848e-05
1.04824e-05
1.04782e-05
1.04699e-05
1.04543e-05
1.0401e-05
1.02612e-05
1.003e-05
9.72522e-06
9.37722e-06
9.02327e-06
8.67243e-06
8.36091e-06
8.00861e-06
7.593e-06
7.46813e-06
7.46532e-06
6.91205e-06
5.06604e-06
2.75965e-06
1.57957e-06
8.39949e-06
1.16873e-05
1.17998e-05
1.18024e-05
1.18025e-05
1.18025e-05
1.18025e-05
1.18025e-05
1.18025e-05
1.04958e-05
1.04958e-05
1.04958e-05
1.04958e-05
1.04958e-05
1.04958e-05
1.04958e-05
1.04958e-05
1.04958e-05
1.04958e-05
1.04958e-05
1.04958e-05
1.04958e-05
1.04958e-05
1.04958e-05
1.04958e-05
1.04958e-05
1.04958e-05
1.04958e-05
1.04958e-05
1.04958e-05
1.04958e-05
1.04958e-05
1.04958e-05
1.04958e-05
1.04958e-05
1.04958e-05
1.04958e-05
1.04958e-05
1.04958e-05
1.04958e-05
1.04958e-05
1.04958e-05
1.04958e-05
1.04958e-05
1.04958e-05
1.04958e-05
1.04957e-05
1.04955e-05
1.04949e-05
1.04927e-05
1.04853e-05
1.04625e-05
1.04097e-05
1.03347e-05
1.02841e-05
1.03098e-05
1.03563e-05
1.03948e-05
1.0422e-05
1.04377e-05
1.04338e-05
1.04081e-05
1.03632e-05
1.03423e-05
1.03751e-05
1.04139e-05
1.04407e-05
1.04552e-05
1.04538e-05
1.04344e-05
1.03845e-05
1.03128e-05
1.02509e-05
1.02581e-05
1.03075e-05
1.03563e-05
1.03835e-05
1.03902e-05
1.03771e-05
1.0354e-05
1.03431e-05
1.03524e-05
1.03678e-05
1.03706e-05
1.03101e-05
1.01107e-05
9.7564e-06
9.2923e-06
8.78243e-06
8.27677e-06
7.8036e-06
7.42157e-06
7.07855e-06
6.62707e-06
6.22588e-06
6.19108e-06
5.93076e-06
4.46273e-06
2.54949e-06
1.68362e-06
9.45723e-06
1.17251e-05
1.18006e-05
1.18024e-05
1.18025e-05
1.18025e-05
1.18025e-05
1.18025e-05
1.18025e-05
1.04958e-05
1.04958e-05
1.04958e-05
1.04958e-05
1.04958e-05
1.04958e-05
1.04958e-05
1.04958e-05
1.04958e-05
1.04958e-05
1.04958e-05
1.04958e-05
1.04958e-05
1.04958e-05
1.04958e-05
1.04958e-05
1.04958e-05
1.04958e-05
1.04958e-05
1.04958e-05
1.04958e-05
1.04958e-05
1.04958e-05
1.04958e-05
1.04958e-05
1.04958e-05
1.04958e-05
1.04958e-05
1.04958e-05
1.04958e-05
1.04958e-05
1.04958e-05
1.04958e-05
1.04957e-05
1.04957e-05
1.04956e-05
1.04955e-05
1.04952e-05
1.04945e-05
1.04926e-05
1.04846e-05
1.04578e-05
1.03711e-05
1.01258e-05
9.6159e-06
9.00899e-06
8.87364e-06
8.99746e-06
9.34621e-06
9.81889e-06
1.01139e-05
1.01449e-05
1.00484e-05
9.67758e-06
9.21121e-06
9.22021e-06
9.4855e-06
9.83859e-06
1.01301e-05
1.02744e-05
1.02321e-05
9.95671e-06
9.31262e-06
8.47393e-06
8.1829e-06
8.40137e-06
8.95975e-06
9.44951e-06
9.76798e-06
9.87533e-06
9.80489e-06
9.66941e-06
9.69924e-06
9.90673e-06
1.01417e-05
1.0124e-05
9.94326e-06
9.53871e-06
8.9824e-06
8.36666e-06
7.77906e-06
7.24809e-06
6.83386e-06
6.49777e-06
6.09101e-06
5.6446e-06
5.48181e-06
5.18434e-06
3.93228e-06
2.37291e-06
1.97411e-06
1.01675e-05
1.17493e-05
1.18012e-05
1.18025e-05
1.18025e-05
1.18025e-05
1.18025e-05
1.18025e-05
1.18025e-05
1.04958e-05
1.04958e-05
1.04958e-05
1.04958e-05
1.04958e-05
1.04958e-05
1.04958e-05
1.04958e-05
1.04958e-05
1.04958e-05
1.04958e-05
1.04958e-05
1.04958e-05
1.04958e-05
1.04958e-05
1.04958e-05
1.04958e-05
1.04958e-05
1.04958e-05
1.04958e-05
1.04958e-05
1.04958e-05
1.04958e-05
1.04958e-05
1.04958e-05
1.04958e-05
1.04958e-05
1.04957e-05
1.04955e-05
1.04952e-05
1.04951e-05
1.04952e-05
1.04951e-05
1.04948e-05
1.04946e-05
1.04943e-05
1.04939e-05
1.0493e-05
1.0491e-05
1.0486e-05
1.04643e-05
1.0394e-05
1.01913e-05
9.76315e-06
9.09611e-06
8.27356e-06
7.60817e-06
7.52632e-06
7.68083e-06
8.23575e-06
9.09302e-06
9.42112e-06
9.32978e-06
8.8672e-06
7.93755e-06
7.36202e-06
7.47132e-06
8.02471e-06
9.12479e-06
9.81475e-06
9.76673e-06
9.28907e-06
8.28611e-06
7.04468e-06
6.02112e-06
5.65593e-06
5.76265e-06
6.33261e-06
7.56864e-06
8.55299e-06
8.87689e-06
8.86326e-06
8.88759e-06
9.10881e-06
9.61099e-06
9.79425e-06
9.69371e-06
9.33245e-06
8.7356e-06
8.04683e-06
7.39652e-06
6.82156e-06
6.37906e-06
6.04153e-06
5.66813e-06
5.24511e-06
5.02385e-06
4.6331e-06
3.5152e-06
2.26105e-06
2.62174e-06
1.06775e-05
1.17678e-05
1.18017e-05
1.18025e-05
1.18025e-05
1.18025e-05
1.18025e-05
1.18025e-05
1.18025e-05
1.04958e-05
1.04958e-05
1.04958e-05
1.04958e-05
1.04958e-05
1.04958e-05
1.04958e-05
1.04958e-05
1.04958e-05
1.04958e-05
1.04958e-05
1.04958e-05
1.04958e-05
1.04958e-05
1.04958e-05
1.04958e-05
1.04958e-05
1.04958e-05
1.04957e-05
1.04955e-05
1.0495e-05
1.04949e-05
1.04952e-05
1.04955e-05
1.04956e-05
1.04955e-05
1.04947e-05
1.04926e-05
1.04876e-05
1.04808e-05
1.04779e-05
1.04814e-05
1.04836e-05
1.04822e-05
1.04803e-05
1.04798e-05
1.04794e-05
1.04786e-05
1.04758e-05
1.04681e-05
1.04352e-05
1.03233e-05
1.00366e-05
9.52445e-06
8.83702e-06
8.04349e-06
7.2397e-06
6.67964e-06
6.61696e-06
6.76764e-06
7.28249e-06
7.91969e-06
7.95616e-06
7.63578e-06
6.78018e-06
5.84387e-06
5.78302e-06
6.08488e-06
7.23359e-06
8.86795e-06
9.12871e-06
8.75586e-06
7.77997e-06
6.56208e-06
5.46353e-06
4.60738e-06
4.06792e-06
3.98973e-06
4.1592e-06
4.91929e-06
6.46316e-06
7.51091e-06
7.894e-06
8.25185e-06
8.86824e-06
9.35392e-06
9.34008e-06
9.08186e-06
8.51039e-06
7.7791e-06
7.07109e-06
6.44025e-06
5.96207e-06
5.61741e-06
5.26393e-06
4.86776e-06
4.63332e-06
4.19843e-06
3.19298e-06
2.09215e-06
3.58045e-06
1.10725e-05
1.17815e-05
1.1802e-05
1.18025e-05
1.18025e-05
1.18025e-05
1.18025e-05
1.18025e-05
1.18025e-05
1.04958e-05
1.04958e-05
1.04958e-05
1.04958e-05
1.04958e-05
1.04957e-05
1.04956e-05
1.04956e-05
1.04957e-05
1.04958e-05
1.04958e-05
1.04958e-05
1.04957e-05
1.04953e-05
1.04948e-05
1.04948e-05
1.04951e-05
1.04949e-05
1.04932e-05
1.04871e-05
1.04756e-05
1.04685e-05
1.04772e-05
1.04844e-05
1.04885e-05
1.04876e-05
1.04758e-05
1.04419e-05
1.0368e-05
1.02474e-05
1.0175e-05
1.02384e-05
1.03073e-05
1.03294e-05
1.03363e-05
1.03519e-05
1.03609e-05
1.03735e-05
1.03905e-05
1.04063e-05
1.03775e-05
1.02379e-05
9.89633e-06
9.32409e-06
8.57638e-06
7.75874e-06
6.99768e-06
6.32697e-06
5.8226e-06
5.67996e-06
5.70617e-06
5.84306e-06
5.86595e-06
5.66821e-06
5.0891e-06
4.33216e-06
4.17378e-06
4.35539e-06
5.2095e-06
7.27789e-06
8.38267e-06
8.16273e-06
7.33735e-06
6.18241e-06
5.09952e-06
4.21481e-06
3.53697e-06
3.13386e-06
3.11314e-06
3.28082e-06
3.81147e-06
4.80996e-06
6.05652e-06
7.00395e-06
7.91842e-06
8.79642e-06
8.93352e-06
8.76156e-06
8.25205e-06
7.51024e-06
6.75791e-06
6.07363e-06
5.56663e-06
5.22099e-06
4.8829e-06
4.50825e-06
4.27968e-06
3.86317e-06
2.90935e-06
1.86541e-06
4.88419e-06
1.13537e-05
1.17901e-05
1.18022e-05
1.18025e-05
1.18025e-05
1.18025e-05
1.18025e-05
1.18025e-05
1.18025e-05
1.04958e-05
1.04958e-05
1.04957e-05
1.04954e-05
1.04941e-05
1.04907e-05
1.04853e-05
1.04832e-05
1.04878e-05
1.04917e-05
1.04931e-05
1.04926e-05
1.04886e-05
1.04752e-05
1.04534e-05
1.04501e-05
1.04633e-05
1.04658e-05
1.04438e-05
1.03612e-05
1.01961e-05
1.00135e-05
1.01042e-05
1.02403e-05
1.03374e-05
1.03816e-05
1.03463e-05
1.02108e-05
9.78793e-06
8.65424e-06
7.43416e-06
7.58949e-06
8.1817e-06
8.57957e-06
8.8971e-06
9.3633e-06
9.64803e-06
9.83255e-06
1.00055e-05
1.02106e-05
1.02254e-05
1.00876e-05
9.68597e-06
8.99745e-06
8.07782e-06
7.1123e-06
6.32241e-06
5.75627e-06
5.31554e-06
4.95147e-06
4.65974e-06
4.46926e-06
4.33235e-06
4.1233e-06
3.76084e-06
3.29243e-06
3.0498e-06
3.11892e-06
3.58115e-06
5.2604e-06
7.4124e-06
7.43818e-06
6.83326e-06
5.75754e-06
4.69468e-06
3.83725e-06
3.18869e-06
2.76244e-06
2.68605e-06
2.75376e-06
2.98885e-06
3.3483e-06
3.80801e-06
4.68044e-06
6.21481e-06
7.97968e-06
8.52305e-06
8.40011e-06
7.94742e-06
7.21934e-06
6.43943e-06
5.71552e-06
5.19047e-06
4.84638e-06
4.51898e-06
4.16867e-06
3.96079e-06
3.5612e-06
2.66474e-06
1.69286e-06
6.2749e-06
1.15188e-05
1.17947e-05
1.18023e-05
1.18025e-05
1.18025e-05
1.18025e-05
1.18025e-05
1.18025e-05
1.18025e-05
1.04879e-05
1.04839e-05
1.04864e-05
1.0481e-05
1.04522e-05
1.03677e-05
1.02139e-05
1.00823e-05
1.01641e-05
1.03026e-05
1.0365e-05
1.03591e-05
1.02493e-05
9.96298e-06
9.45826e-06
9.16666e-06
9.45639e-06
9.6901e-06
9.69832e-06
9.35768e-06
8.6384e-06
6.9053e-06
6.51534e-06
7.41422e-06
8.38988e-06
9.10917e-06
9.66995e-06
9.4891e-06
8.49656e-06
6.56646e-06
4.56457e-06
3.62174e-06
3.76e-06
3.93387e-06
4.08714e-06
4.68942e-06
6.08926e-06
7.52849e-06
8.66546e-06
9.71239e-06
9.9443e-06
9.80858e-06
9.34976e-06
8.52271e-06
7.42595e-06
6.33388e-06
5.48055e-06
4.94383e-06
4.58207e-06
4.27835e-06
3.98926e-06
3.73683e-06
3.53042e-06
3.3055e-06
3.01871e-06
2.70799e-06
2.48986e-06
2.49345e-06
2.70082e-06
3.71855e-06
6.07741e-06
6.64529e-06
6.24581e-06
5.29633e-06
4.26499e-06
3.44597e-06
2.8512e-06
2.46072e-06
2.40612e-06
2.52688e-06
2.6499e-06
2.62515e-06
2.65737e-06
3.00189e-06
3.99075e-06
6.33636e-06
7.9904e-06
7.97757e-06
7.60685e-06
6.91292e-06
6.12215e-06
5.37322e-06
4.83612e-06
4.49369e-06
4.17943e-06
3.85307e-06
3.6665e-06
3.2904e-06
2.45881e-06
1.60142e-06
7.56421e-06
1.16166e-05
1.17974e-05
1.18024e-05
1.18025e-05
1.18025e-05
1.18025e-05
1.18025e-05
1.18025e-05
1.18025e-05
1.0071e-05
9.58026e-06
9.72332e-06
9.84854e-06
9.65316e-06
9.00778e-06
7.62576e-06
5.96831e-06
5.6457e-06
6.75415e-06
7.65313e-06
8.45902e-06
8.37931e-06
7.35119e-06
5.25482e-06
3.9754e-06
4.03266e-06
4.59837e-06
5.63425e-06
6.35454e-06
5.78684e-06
4.16074e-06
3.11295e-06
3.21848e-06
4.01816e-06
5.72597e-06
8.24615e-06
8.23296e-06
7.22831e-06
5.38893e-06
3.6512e-06
2.70483e-06
2.52441e-06
2.33337e-06
2.27221e-06
2.36927e-06
2.69757e-06
3.71476e-06
5.89173e-06
8.68047e-06
9.47351e-06
9.34546e-06
8.83989e-06
7.88482e-06
6.66979e-06
5.50743e-06
4.64769e-06
4.15656e-06
3.87589e-06
3.65413e-06
3.42965e-06
3.21949e-06
3.0233e-06
2.79148e-06
2.56793e-06
2.42379e-06
2.3213e-06
2.32175e-06
2.41462e-06
2.89993e-06
4.65687e-06
5.7924e-06
5.55754e-06
4.77878e-06
3.84312e-06
3.09104e-06
2.55523e-06
2.23398e-06
2.13553e-06
2.08117e-06
2.04103e-06
1.90742e-06
1.81775e-06
1.91216e-06
2.54084e-06
4.21225e-06
7.07693e-06
7.46676e-06
7.21387e-06
6.58822e-06
5.80093e-06
5.03458e-06
4.48635e-06
4.15687e-06
3.86155e-06
3.54822e-06
3.39043e-06
3.05354e-06
2.30069e-06
1.61264e-06
8.62822e-06
1.1675e-05
1.1799e-05
1.18024e-05
1.18025e-05
1.18025e-05
1.18025e-05
1.18025e-05
1.18025e-05
1.18025e-05
1.81635e-06
1.80151e-06
2.42324e-06
3.92909e-06
4.24267e-06
3.83006e-06
2.8274e-06
1.9702e-06
1.88207e-06
2.16157e-06
3.36197e-06
5.62339e-06
5.64348e-06
4.53251e-06
3.15719e-06
2.09532e-06
1.97868e-06
2.10778e-06
2.84706e-06
3.80438e-06
3.69958e-06
2.98878e-06
2.09327e-06
1.99066e-06
2.22682e-06
3.3261e-06
5.6512e-06
6.63032e-06
6.01199e-06
4.53491e-06
3.10306e-06
2.40031e-06
2.01099e-06
1.81426e-06
1.77648e-06
1.81175e-06
1.88702e-06
2.22165e-06
3.29834e-06
6.25777e-06
8.64391e-06
8.62898e-06
8.14194e-06
7.13146e-06
5.85442e-06
4.66133e-06
3.83587e-06
3.44154e-06
3.25526e-06
3.12586e-06
2.9934e-06
2.8466e-06
2.66159e-06
2.42334e-06
2.37321e-06
2.42881e-06
2.48032e-06
2.43325e-06
2.45307e-06
2.67028e-06
3.8199e-06
4.96158e-06
4.84655e-06
4.2263e-06
3.41269e-06
2.74094e-06
2.29918e-06
2.04059e-06
1.82813e-06
1.73529e-06
1.68212e-06
1.62007e-06
1.59787e-06
1.60727e-06
1.76069e-06
2.97148e-06
5.72486e-06
6.90044e-06
6.75706e-06
6.23392e-06
5.47804e-06
4.6989e-06
4.14396e-06
3.83318e-06
3.55142e-06
3.25569e-06
3.13648e-06
2.84555e-06
2.17538e-06
1.70113e-06
9.4638e-06
1.17131e-05
1.18e-05
1.18024e-05
1.18025e-05
1.18025e-05
1.18025e-05
1.18025e-05
1.18025e-05
1.18025e-05
1.56218e-06
1.59599e-06
1.63465e-06
2.00921e-06
2.21932e-06
2.05011e-06
1.68249e-06
1.6095e-06
1.59762e-06
1.83935e-06
2.91767e-06
3.74804e-06
3.69539e-06
3.11565e-06
2.08407e-06
1.65356e-06
1.6548e-06
1.90799e-06
2.3865e-06
2.99006e-06
2.69113e-06
1.96576e-06
1.74746e-06
1.77218e-06
1.81629e-06
2.11407e-06
3.51322e-06
5.06299e-06
4.76072e-06
3.69667e-06
2.70776e-06
2.03844e-06
1.70202e-06
1.62938e-06
1.64539e-06
1.75801e-06
2.04204e-06
2.10161e-06
2.35118e-06
4.0637e-06
7.19461e-06
7.60939e-06
7.23082e-06
6.26226e-06
4.98524e-06
3.8383e-06
3.12375e-06
2.85607e-06
2.80291e-06
2.77348e-06
2.71676e-06
2.5818e-06
2.34639e-06
2.30195e-06
2.49609e-06
2.89787e-06
2.94135e-06
2.79929e-06
2.64508e-06
2.76789e-06
3.5026e-06
4.27981e-06
4.19014e-06
3.6754e-06
2.97475e-06
2.41919e-06
2.1034e-06
1.85015e-06
1.66825e-06
1.59952e-06
1.58766e-06
1.58404e-06
1.56169e-06
1.54621e-06
1.58736e-06
2.12719e-06
4.28653e-06
6.26438e-06
6.2509e-06
5.8445e-06
5.14275e-06
4.35941e-06
3.81007e-06
3.51355e-06
3.25072e-06
2.97882e-06
2.90167e-06
2.65405e-06
2.08759e-06
1.94936e-06
1.00846e-05
1.17395e-05
1.18008e-05
1.18024e-05
1.18025e-05
1.18025e-05
1.18025e-05
1.18025e-05
1.18025e-05
1.18025e-05
1.56318e-06
1.55454e-06
1.59014e-06
1.63295e-06
1.6299e-06
1.63088e-06
1.57869e-06
1.54692e-06
1.56413e-06
1.64794e-06
2.18638e-06
2.64053e-06
2.57574e-06
2.03974e-06
1.62469e-06
1.57428e-06
1.58334e-06
1.77214e-06
2.13236e-06
2.09351e-06
1.7958e-06
1.63904e-06
1.70932e-06
2.24598e-06
2.48994e-06
2.4876e-06
3.19508e-06
4.08634e-06
3.79696e-06
3.02061e-06
2.29155e-06
1.71883e-06
1.58379e-06
1.56047e-06
1.61523e-06
1.93284e-06
2.46885e-06
2.5634e-06
2.5975e-06
3.26999e-06
5.5613e-06
6.43781e-06
6.16103e-06
5.30383e-06
4.12103e-06
3.13916e-06
2.62348e-06
2.54381e-06
2.55279e-06
2.55397e-06
2.50058e-06
2.31198e-06
2.18742e-06
2.29691e-06
2.95906e-06
3.36903e-06
3.32567e-06
3.09773e-06
2.85831e-06
2.92189e-06
3.41706e-06
3.78183e-06
3.65248e-06
3.16839e-06
2.58461e-06
2.18888e-06
1.9227e-06
1.70236e-06
1.58962e-06
1.59279e-06
1.6041e-06
1.59728e-06
1.57807e-06
1.53103e-06
1.55547e-06
1.8343e-06
3.4823e-06
5.65428e-06
5.74324e-06
5.43173e-06
4.79031e-06
4.01933e-06
3.47426e-06
3.20164e-06
2.96472e-06
2.7159e-06
2.68475e-06
2.47357e-06
2.01842e-06
2.40999e-06
1.0539e-05
1.1759e-05
1.18014e-05
1.18025e-05
1.18025e-05
1.18025e-05
1.18025e-05
1.18025e-05
1.18025e-05
1.18025e-05
1.56756e-06
1.56487e-06
1.55865e-06
1.55472e-06
1.55458e-06
1.55432e-06
1.55431e-06
1.55184e-06
1.55051e-06
1.59051e-06
1.64395e-06
1.78168e-06
1.73645e-06
1.6215e-06
1.59498e-06
1.55672e-06
1.5722e-06
1.60903e-06
1.62972e-06
1.62343e-06
1.59874e-06
1.57138e-06
1.7382e-06
2.43399e-06
3.05279e-06
3.21114e-06
3.46292e-06
3.50534e-06
3.0912e-06
2.53447e-06
1.84889e-06
1.60494e-06
1.55422e-06
1.54048e-06
1.62639e-06
2.10427e-06
2.58746e-06
2.76103e-06
2.7945e-06
3.10401e-06
4.46146e-06
5.31014e-06
5.09967e-06
4.33721e-06
3.32937e-06
2.60813e-06
2.32856e-06
2.32456e-06
2.36415e-06
2.36781e-06
2.28955e-06
2.10604e-06
2.07225e-06
2.37733e-06
3.2691e-06
3.55596e-06
3.50133e-06
3.25776e-06
3.03943e-06
3.09062e-06
3.36554e-06
3.41379e-06
3.20875e-06
2.73804e-06
2.29888e-06
2.0051e-06
1.75825e-06
1.60375e-06
1.61234e-06
1.67072e-06
1.68464e-06
1.67296e-06
1.6225e-06
1.5368e-06
1.56193e-06
1.80606e-06
3.12652e-06
5.16587e-06
5.28279e-06
5.02422e-06
4.42861e-06
3.67847e-06
3.14428e-06
2.90107e-06
2.69173e-06
2.48632e-06
2.49017e-06
2.30492e-06
1.95057e-06
3.18694e-06
1.09244e-05
1.17739e-05
1.18018e-05
1.18025e-05
1.18025e-05
1.18025e-05
1.18025e-05
1.18025e-05
1.18025e-05
1.18025e-05
1.56804e-06
1.5678e-06
1.56718e-06
1.56645e-06
1.56592e-06
1.56593e-06
1.56589e-06
1.56451e-06
1.5605e-06
1.56018e-06
1.59374e-06
1.61831e-06
1.61127e-06
1.58608e-06
1.57994e-06
1.59032e-06
1.59548e-06
1.6132e-06
1.62497e-06
1.61844e-06
1.57199e-06
1.55468e-06
1.70224e-06
2.53283e-06
2.98336e-06
3.14921e-06
3.17345e-06
3.00125e-06
2.60495e-06
1.98578e-06
1.62401e-06
1.62701e-06
1.58299e-06
1.54267e-06
1.63403e-06
2.16736e-06
2.77467e-06
2.9197e-06
2.93978e-06
3.14257e-06
3.98369e-06
4.44273e-06
4.19935e-06
3.48575e-06
2.73145e-06
2.28229e-06
2.16399e-06
2.19529e-06
2.2328e-06
2.22177e-06
2.07284e-06
1.96963e-06
2.03315e-06
2.44674e-06
3.31543e-06
3.60736e-06
3.5784e-06
3.43535e-06
3.26423e-06
3.26944e-06
3.28265e-06
3.15871e-06
2.8166e-06
2.39909e-06
2.0954e-06
1.81426e-06
1.63019e-06
1.61495e-06
1.74201e-06
1.8071e-06
1.79904e-06
1.76027e-06
1.66081e-06
1.54049e-06
1.59854e-06
1.91903e-06
3.13559e-06
4.81978e-06
4.89727e-06
4.6497e-06
4.07856e-06
3.33965e-06
2.8265e-06
2.61586e-06
2.43939e-06
2.29666e-06
2.32051e-06
2.16355e-06
1.8421e-06
4.28657e-06
1.12249e-05
1.17846e-05
1.1802e-05
1.18025e-05
1.18025e-05
1.18025e-05
1.18025e-05
1.18025e-05
1.18025e-05
1.18025e-05
1.56807e-06
1.56823e-06
1.56851e-06
1.56889e-06
1.56946e-06
1.57043e-06
1.57207e-06
1.57325e-06
1.57307e-06
1.57101e-06
1.5693e-06
1.57233e-06
1.58273e-06
1.59701e-06
1.62871e-06
1.6643e-06
1.6733e-06
1.6695e-06
1.66107e-06
1.6458e-06
1.61027e-06
1.57601e-06
1.6091e-06
2.0014e-06
2.71653e-06
2.91842e-06
2.86133e-06
2.4749e-06
1.97108e-06
1.63716e-06
1.7134e-06
1.71321e-06
1.66404e-06
1.57713e-06
1.61194e-06
2.21692e-06
2.86438e-06
3.05748e-06
3.07522e-06
3.25357e-06
3.76815e-06
3.82495e-06
3.47103e-06
2.84619e-06
2.34568e-06
1.97734e-06
1.94663e-06
1.99251e-06
1.99325e-06
1.91964e-06
1.81382e-06
1.79665e-06
1.86155e-06
2.24261e-06
2.91142e-06
3.43717e-06
3.58775e-06
3.54903e-06
3.43227e-06
3.3037e-06
3.13343e-06
2.83951e-06
2.47191e-06
2.17621e-06
1.88297e-06
1.66092e-06
1.61846e-06
1.76367e-06
1.89513e-06
1.89363e-06
1.87035e-06
1.7979e-06
1.65721e-06
1.54787e-06
1.67276e-06
2.16529e-06
3.36011e-06
4.58514e-06
4.59174e-06
4.3179e-06
3.74469e-06
3.01817e-06
2.52875e-06
2.3567e-06
2.23104e-06
2.14369e-06
2.18588e-06
2.04197e-06
1.68665e-06
5.73089e-06
1.14478e-05
1.1792e-05
1.18022e-05
1.18025e-05
1.18025e-05
1.18025e-05
1.18025e-05
1.18025e-05
1.18025e-05
1.18025e-05
1.56828e-06
1.56915e-06
1.5706e-06
1.57308e-06
1.57626e-06
1.58003e-06
1.5847e-06
1.58788e-06
1.5882e-06
1.58788e-06
1.58996e-06
1.59867e-06
1.62088e-06
1.66432e-06
1.72618e-06
1.7779e-06
1.78554e-06
1.77631e-06
1.75948e-06
1.73663e-06
1.70387e-06
1.66988e-06
1.64512e-06
1.63643e-06
1.93556e-06
2.16215e-06
2.06866e-06
1.80391e-06
1.65728e-06
1.81728e-06
1.90998e-06
1.88168e-06
1.7747e-06
1.6285e-06
1.59062e-06
2.1211e-06
2.81541e-06
3.16115e-06
3.25567e-06
3.39533e-06
3.50017e-06
3.33081e-06
2.87493e-06
2.4626e-06
1.93492e-06
1.73061e-06
1.70614e-06
1.71825e-06
1.70706e-06
1.67276e-06
1.64309e-06
1.63918e-06
1.66388e-06
1.8148e-06
2.28422e-06
2.92513e-06
3.24631e-06
3.3104e-06
3.27537e-06
3.15201e-06
2.87182e-06
2.52072e-06
2.24481e-06
1.95661e-06
1.69887e-06
1.6264e-06
1.78151e-06
1.93899e-06
1.94634e-06
1.91489e-06
1.84859e-06
1.73914e-06
1.60847e-06
1.56832e-06
1.77555e-06
2.4263e-06
3.7197e-06
4.41667e-06
4.35614e-06
4.02572e-06
3.42385e-06
2.72621e-06
2.28653e-06
2.15439e-06
2.06396e-06
2.02833e-06
2.07231e-06
1.95829e-06
1.62012e-06
7.49836e-06
1.16009e-05
1.17967e-05
1.18024e-05
1.18025e-05
1.18025e-05
1.18025e-05
1.18025e-05
1.18025e-05
1.18025e-05
1.18025e-05
1.56943e-06
1.57412e-06
1.58249e-06
1.59454e-06
1.60927e-06
1.62373e-06
1.63451e-06
1.63584e-06
1.63393e-06
1.63357e-06
1.64244e-06
1.67216e-06
1.73378e-06
1.83584e-06
1.92978e-06
1.95203e-06
1.93987e-06
1.90557e-06
1.86941e-06
1.84769e-06
1.85942e-06
1.91667e-06
1.93147e-06
1.83246e-06
1.69794e-06
1.66394e-06
1.68281e-06
1.77923e-06
2.03046e-06
2.18425e-06
2.16953e-06
2.07842e-06
1.92846e-06
1.73474e-06
1.60013e-06
1.88056e-06
2.64847e-06
3.0819e-06
3.21612e-06
3.26586e-06
3.16225e-06
2.84286e-06
2.50745e-06
2.00907e-06
1.68494e-06
1.59974e-06
1.59392e-06
1.59464e-06
1.59074e-06
1.58146e-06
1.57285e-06
1.56675e-06
1.57383e-06
1.61984e-06
1.80224e-06
2.31455e-06
2.83238e-06
2.93034e-06
2.93595e-06
2.82195e-06
2.54348e-06
2.28877e-06
2.00799e-06
1.73975e-06
1.62572e-06
1.79803e-06
1.97326e-06
1.96949e-06
1.90073e-06
1.78923e-06
1.70027e-06
1.63015e-06
1.58059e-06
1.60542e-06
1.84748e-06
2.67886e-06
3.99966e-06
4.28159e-06
4.15652e-06
3.75472e-06
3.11902e-06
2.46028e-06
2.09729e-06
2.00256e-06
1.95043e-06
1.94498e-06
1.99503e-06
1.88655e-06
1.81676e-06
9.23943e-06
1.16969e-05
1.17995e-05
1.18024e-05
1.18025e-05
1.18025e-05
1.18025e-05
1.18025e-05
1.18025e-05
1.18025e-05
1.18025e-05
1.57808e-06
1.60406e-06
1.65405e-06
1.72818e-06
1.77492e-06
1.79376e-06
1.78958e-06
1.77803e-06
1.76735e-06
1.77144e-06
1.80919e-06
1.903e-06
2.05947e-06
2.21652e-06
2.24745e-06
2.22028e-06
2.14506e-06
2.05363e-06
2.00743e-06
2.02641e-06
2.13498e-06
2.42487e-06
2.68989e-06
2.6808e-06
2.45555e-06
2.29361e-06
2.35079e-06
2.49665e-06
2.58348e-06
2.56087e-06
2.47513e-06
2.34112e-06
2.15909e-06
1.91685e-06
1.66395e-06
1.64749e-06
2.35641e-06
2.84783e-06
2.95551e-06
2.94629e-06
2.75286e-06
2.53061e-06
2.05568e-06
1.70688e-06
1.60856e-06
1.614e-06
1.62012e-06
1.61136e-06
1.59015e-06
1.56475e-06
1.54576e-06
1.53526e-06
1.53496e-06
1.55571e-06
1.61068e-06
1.80001e-06
2.18593e-06
2.49587e-06
2.60869e-06
2.52712e-06
2.30738e-06
2.0028e-06
1.76182e-06
1.62605e-06
1.80708e-06
2.00348e-06
1.99523e-06
1.91288e-06
1.73242e-06
1.63244e-06
1.59598e-06
1.58465e-06
1.59655e-06
1.66324e-06
1.87356e-06
2.83915e-06
4.06011e-06
4.16128e-06
3.96917e-06
3.48983e-06
2.82583e-06
2.24521e-06
1.97156e-06
1.88411e-06
1.86891e-06
1.88242e-06
1.93824e-06
1.82469e-06
2.58546e-06
1.04145e-05
1.17511e-05
1.18011e-05
1.18025e-05
1.18025e-05
1.18025e-05
1.18025e-05
1.18025e-05
1.18025e-05
1.18025e-05
1.18025e-05
1.67548e-06
1.85534e-06
2.05381e-06
2.27357e-06
2.30514e-06
2.26569e-06
2.20596e-06
2.14471e-06
2.13076e-06
2.16686e-06
2.30951e-06
2.58112e-06
2.78877e-06
2.80332e-06
2.73838e-06
2.59686e-06
2.43937e-06
2.31804e-06
2.32419e-06
2.42045e-06
2.74932e-06
3.36128e-06
3.7435e-06
3.69617e-06
3.52554e-06
3.32568e-06
3.17902e-06
3.08665e-06
3.02653e-06
2.96218e-06
2.85501e-06
2.69247e-06
2.47475e-06
2.18209e-06
1.82201e-06
1.6347e-06
1.80985e-06
2.42471e-06
2.68948e-06
2.64612e-06
2.39546e-06
2.04402e-06
1.70316e-06
1.63508e-06
1.69184e-06
1.71311e-06
1.70908e-06
1.68086e-06
1.63529e-06
1.58899e-06
1.55753e-06
1.53482e-06
1.52464e-06
1.53014e-06
1.55903e-06
1.6044e-06
1.71875e-06
1.8958e-06
2.05453e-06
2.04515e-06
1.91797e-06
1.7157e-06
1.63469e-06
1.82717e-06
2.03817e-06
2.02805e-06
1.94535e-06
1.75345e-06
1.61117e-06
1.58111e-06
1.6053e-06
1.62916e-06
1.65255e-06
1.70151e-06
1.87776e-06
2.87853e-06
4.00966e-06
4.03759e-06
3.77527e-06
3.2345e-06
2.56224e-06
2.08107e-06
1.89838e-06
1.83693e-06
1.8352e-06
1.85517e-06
1.88644e-06
1.75274e-06
4.18093e-06
1.112e-05
1.17799e-05
1.18019e-05
1.18025e-05
1.18025e-05
1.18025e-05
1.18025e-05
1.18025e-05
1.18025e-05
1.18025e-05
1.18025e-05
6.09324e-06
4.91025e-06
4.58422e-06
4.22454e-06
3.85289e-06
3.51464e-06
3.32126e-06
3.23585e-06
3.27741e-06
3.52274e-06
3.90695e-06
4.01555e-06
3.97287e-06
3.80791e-06
3.57569e-06
3.34493e-06
3.12133e-06
3.06459e-06
3.14064e-06
3.42766e-06
4.04415e-06
4.41089e-06
4.36972e-06
4.23575e-06
4.01173e-06
3.79946e-06
3.66034e-06
3.57539e-06
3.52331e-06
3.44425e-06
3.29043e-06
3.07229e-06
2.81646e-06
2.51019e-06
2.11949e-06
1.781e-06
1.64114e-06
1.78323e-06
2.03298e-06
2.04746e-06
1.86858e-06
1.65094e-06
1.6704e-06
1.78916e-06
1.87354e-06
1.87809e-06
1.84656e-06
1.77401e-06
1.69517e-06
1.62357e-06
1.56968e-06
1.54112e-06
1.53079e-06
1.53532e-06
1.55633e-06
1.59258e-06
1.61214e-06
1.62319e-06
1.64668e-06
1.65232e-06
1.63396e-06
1.69073e-06
1.92339e-06
2.09319e-06
2.06815e-06
1.95414e-06
1.76523e-06
1.61878e-06
1.57083e-06
1.61232e-06
1.65302e-06
1.66988e-06
1.68304e-06
1.71722e-06
1.86228e-06
2.77204e-06
3.89063e-06
3.88628e-06
3.55995e-06
2.97951e-06
2.33433e-06
1.96899e-06
1.85767e-06
1.8325e-06
1.83037e-06
1.84316e-06
1.81862e-06
1.63442e-06
6.78724e-06
1.15219e-05
1.1794e-05
1.18023e-05
1.18025e-05
1.18025e-05
1.18025e-05
1.18025e-05
1.18025e-05
1.18025e-05
1.18025e-05
1.18025e-05
1.1115e-05
9.7868e-06
8.69739e-06
7.9406e-06
7.38051e-06
6.92417e-06
6.73653e-06
6.694e-06
6.77241e-06
6.81774e-06
6.77141e-06
6.57721e-06
6.38705e-06
6.16527e-06
5.87729e-06
5.53167e-06
5.2126e-06
5.08495e-06
5.12299e-06
5.2071e-06
5.11608e-06
4.93264e-06
4.68202e-06
4.57025e-06
4.46331e-06
4.35854e-06
4.2835e-06
4.21456e-06
4.11718e-06
3.93724e-06
3.67195e-06
3.37682e-06
3.0932e-06
2.81219e-06
2.49274e-06
2.15157e-06
1.86244e-06
1.69765e-06
1.63969e-06
1.63594e-06
1.66051e-06
1.77042e-06
1.94891e-06
2.04466e-06
2.05372e-06
2.01468e-06
1.92358e-06
1.81201e-06
1.71053e-06
1.62675e-06
1.56742e-06
1.54089e-06
1.54498e-06
1.57254e-06
1.63876e-06
1.70951e-06
1.74336e-06
1.76281e-06
1.77605e-06
1.81004e-06
1.95541e-06
2.13937e-06
2.19257e-06
2.13611e-06
1.96487e-06
1.73529e-06
1.60885e-06
1.56319e-06
1.59266e-06
1.64105e-06
1.67037e-06
1.68157e-06
1.69054e-06
1.7195e-06
1.84011e-06
2.59344e-06
3.70627e-06
3.69099e-06
3.31873e-06
2.72301e-06
2.15648e-06
1.88626e-06
1.83207e-06
1.82814e-06
1.82723e-06
1.82792e-06
1.76101e-06
2.06426e-06
9.61701e-06
1.17059e-05
1.17997e-05
1.18024e-05
1.18025e-05
1.18025e-05
1.18025e-05
1.18025e-05
1.18025e-05
1.18025e-05
1.18025e-05
1.18025e-05
1.17552e-05
1.15563e-05
1.1332e-05
1.11275e-05
1.09363e-05
1.07788e-05
1.06646e-05
1.05779e-05
1.0503e-05
1.03401e-05
1.0057e-05
9.7042e-06
9.3362e-06
8.81789e-06
8.15989e-06
7.5368e-06
7.07339e-06
6.73607e-06
6.25841e-06
5.47336e-06
4.96735e-06
5.17922e-06
5.60478e-06
5.82154e-06
5.72055e-06
5.53435e-06
5.32018e-06
5.05049e-06
4.69894e-06
4.27618e-06
3.85688e-06
3.49631e-06
3.20574e-06
2.96976e-06
2.75416e-06
2.54173e-06
2.32599e-06
2.13073e-06
2.01176e-06
1.9791e-06
2.04185e-06
2.16549e-06
2.23194e-06
2.22215e-06
2.15772e-06
2.03729e-06
1.90886e-06
1.78824e-06
1.67946e-06
1.59207e-06
1.5494e-06
1.55002e-06
1.5791e-06
1.69118e-06
1.88518e-06
2.07301e-06
2.2095e-06
2.28271e-06
2.33342e-06
2.37746e-06
2.36745e-06
2.32109e-06
2.18382e-06
1.94303e-06
1.70672e-06
1.57486e-06
1.55367e-06
1.57411e-06
1.60804e-06
1.62785e-06
1.64459e-06
1.66057e-06
1.67415e-06
1.70045e-06
1.81071e-06
2.41667e-06
3.46804e-06
3.44881e-06
3.0622e-06
2.46767e-06
2.02371e-06
1.83207e-06
1.80631e-06
1.81709e-06
1.81962e-06
1.80361e-06
1.69275e-06
4.47108e-06
1.10512e-05
1.17733e-05
1.18017e-05
1.18025e-05
1.18025e-05
1.18025e-05
1.18025e-05
1.18025e-05
1.18025e-05
1.18025e-05
1.18025e-05
1.18025e-05
1.17996e-05
1.17847e-05
1.17644e-05
1.17446e-05
1.17267e-05
1.17082e-05
1.16728e-05
1.15918e-05
1.14452e-05
1.10066e-05
1.00108e-05
8.55408e-06
7.17263e-06
6.08443e-06
5.40346e-06
5.42932e-06
5.72653e-06
5.82168e-06
5.39392e-06
5.0015e-06
5.43823e-06
6.92787e-06
7.94985e-06
7.93174e-06
7.65879e-06
7.13848e-06
6.48246e-06
5.75279e-06
5.01341e-06
4.37578e-06
3.87506e-06
3.49513e-06
3.21176e-06
3.00078e-06
2.84778e-06
2.72887e-06
2.61459e-06
2.5203e-06
2.45181e-06
2.41496e-06
2.40872e-06
2.39853e-06
2.3459e-06
2.2444e-06
2.11708e-06
1.9756e-06
1.83173e-06
1.70619e-06
1.60395e-06
1.55031e-06
1.55017e-06
1.57823e-06
1.72148e-06
2.02923e-06
2.41891e-06
2.6526e-06
2.70891e-06
2.66667e-06
2.61735e-06
2.51687e-06
2.32124e-06
2.06798e-06
1.84175e-06
1.65195e-06
1.55535e-06
1.53172e-06
1.56007e-06
1.56479e-06
1.56593e-06
1.56727e-06
1.573e-06
1.59173e-06
1.62024e-06
1.66008e-06
1.77678e-06
2.27245e-06
3.19244e-06
3.17288e-06
2.8016e-06
2.26086e-06
1.92777e-06
1.79293e-06
1.76109e-06
1.7941e-06
1.80307e-06
1.7271e-06
1.76126e-06
8.36462e-06
1.15944e-05
1.1795e-05
1.18023e-05
1.18025e-05
1.18025e-05
1.18025e-05
1.18025e-05
1.18025e-05
1.18025e-05
1.18025e-05
1.18025e-05
1.18025e-05
1.18023e-05
1.18013e-05
1.17997e-05
1.17984e-05
1.17971e-05
1.17892e-05
1.17376e-05
1.15511e-05
1.09721e-05
9.56524e-06
7.55266e-06
5.84925e-06
4.73417e-06
4.08401e-06
3.85783e-06
3.94989e-06
4.35749e-06
4.56076e-06
4.61073e-06
5.24458e-06
7.36492e-06
9.01417e-06
9.15735e-06
9.04018e-06
8.72702e-06
8.05024e-06
7.00916e-06
5.93835e-06
4.9906e-06
4.22911e-06
3.68698e-06
3.33499e-06
3.11594e-06
2.97236e-06
2.8649e-06
2.7826e-06
2.71502e-06
2.65902e-06
2.60867e-06
2.55301e-06
2.48701e-06
2.40642e-06
2.29457e-06
2.14488e-06
1.97774e-06
1.83407e-06