/*--------------------------------*- C++ -*----------------------------------*\
| =========                 |                                                 |
| \\      /  F ield         | OpenFOAM: The Open Source CFD Toolbox           |
|  \\    /   O peration     | Version:  2.3.0                                 |
|   \\  /    A nd           | Web:      www.OpenFOAM.org                      |
|    \\/     M anipulation  |                                                 |
\*---------------------------------------------------------------------------*/
FoamFile
{
    version     2.0;
    format      ascii;
    class       volVectorField;
    location    "0.01";
    object      U;
}
// * * * * * * * * * * * * * * * * * * * * * * * * * * * * * * * * * * * * * //

dimensions      [0 1 -1 0 0 0 0];

internalField   nonuniform List<vector> 
5000
(
(44.2638 0.101492 0.231256)
(45.8323 -0.309535 1.11698)
(48.3314 -0.0934384 1.76682)
(48.8742 0.102749 1.34131)
(48.8189 0.191637 0.667955)
(49.1167 0.175936 0.237732)
(49.6277 0.0619199 -0.105393)
(50.1722 -0.110494 -0.270704)
(50.489 -0.0777226 0.270932)
(50.2126 0.0453875 0.512979)
(49.3818 0.229481 0.807836)
(47.7326 0.330813 0.350829)
(46.5663 0.274203 -0.606322)
(46.5587 0.161692 -0.891792)
(46.8221 0.141371 -1.07174)
(47.3733 0.197151 -1.61117)
(47.7407 0.00590375 -1.23273)
(48.0085 -0.0969418 -0.0830995)
(48.2349 -0.189537 0.502937)
(48.8176 -0.279201 0.964009)
(50.0877 -0.359207 1.27084)
(51.9319 -0.392694 0.70836)
(52.2972 -0.0674928 0.243748)
(51.8835 -0.0598258 0.129734)
(51.0644 -0.0809006 -0.0944997)
(49.0802 0.035018 0.00763015)
(47.3227 0.181674 0.607888)
(47.4385 0.0583296 0.824896)
(48.0921 0.0132325 1.03152)
(49.3833 -0.115308 0.868833)
(51.3847 -0.0937718 -0.259951)
(52.5395 0.0741225 -0.325099)
(52.6674 -0.0601982 0.000289121)
(52.9513 -0.124635 0.073954)
(53.7395 -0.123633 0.455015)
(53.7905 0.0438826 0.615583)
(53.2971 0.132668 0.699614)
(52.1219 0.247057 0.792568)
(50.3902 0.215941 0.664094)
(48.7121 0.218795 0.279918)
(47.2234 0.27146 0.060182)
(45.9225 0.197116 0.137207)
(45.3654 -0.014178 0.255541)
(45.5409 -0.093507 0.283437)
(46.1907 -0.174945 0.332367)
(47.4058 -0.15069 0.345589)
(48.054 -0.00923666 0.30028)
(47.7901 0.147442 0.291074)
(46.7351 0.184064 0.469201)
(45.878 0.0640739 0.770719)
(45.9498 -0.0369557 0.839078)
(46.4054 -0.100034 0.899169)
(47.6133 -0.229701 0.998287)
(49.5625 -0.291244 1.0307)
(52.2685 -0.199437 0.922583)
(54.3528 -0.0538847 0.660796)
(54.321 0.0554583 0.60157)
(53.7987 0.0854936 0.520136)
(52.3383 0.117118 0.362342)
(50.9196 0.127603 0.361301)
(50.0737 0.153901 0.535386)
(49.8087 0.0294186 0.630169)
(50.1431 -0.0341283 0.662448)
(51.1945 -0.0944807 0.654776)
(52.7956 -0.0668136 0.546222)
(54.0706 -0.0214317 0.484828)
(54.6153 0.006758 0.471912)
(54.703 -0.0253307 0.507169)
(54.8179 -0.0421085 0.543442)
(54.9716 -0.00646101 0.575189)
(55.366 0.00777408 0.480754)
(55.5145 0.0392767 0.376662)
(54.9311 0.182533 0.345239)
(52.6164 0.431625 0.213303)
(46.1843 0.53075 -0.0496817)
(41.6287 0.0892065 -0.123889)
(41.6612 -0.0420917 -0.114689)
(41.6694 -0.0569125 0.170152)
(42.2981 -0.0545686 0.902257)
(43.5223 -0.0809585 0.7013)
(44.7875 -0.0810542 0.538562)
(46.6559 -0.114848 1.42589)
(48.3406 0.091501 1.1611)
(48.4292 0.0185905 0.886789)
(48.2508 0.0775597 0.685718)
(47.6049 0.167487 0.443569)
(46.6641 0.354282 0.124362)
(45.1 0.809403 -0.019011)
(42.4982 1.46814 -0.0436578)
(31.6692 2.1658 -0.0379402)
(16.1279 1.12025 -0.00546779)
(11.907 -0.102184 -0.000126284)
(10.8914 -0.018581 -5.14655e-06)
(10.3458 0.0284754 -1.78208e-07)
(9.85032 0.0274185 -1.15192e-08)
(9.52151 0.0261056 -2.8924e-10)
(9.18534 0.0201848 1.34449e-10)
(9.09113 0.0113544 1.19505e-10)
(9.00491 0.00966916 1.21245e-10)
(8.92705 0.00446371 9.05419e-11)
(40.9955 -3.79919 -2.15507)
(43.4583 -1.85204 -0.616183)
(45.9609 -0.700183 0.108392)
(47.5962 -0.303942 0.337386)
(48.7654 -0.54399 -0.180842)
(49.9058 -0.629273 -1.1214)
(50.9207 -0.578111 -1.30353)
(51.5566 -0.221015 -0.851335)
(51.4309 -0.0389791 -0.663414)
(50.9513 0.165278 -0.439249)
(50.2203 0.399043 -0.192762)
(49.0986 0.408711 0.273814)
(48.5762 -0.140112 0.463235)
(48.7196 -0.33434 0.352693)
(49.1148 -0.562695 0.0683967)
(49.7527 -0.546957 -0.513704)
(49.9803 -0.181401 -0.921191)
(49.8967 -0.0189199 -1.08806)
(49.7721 0.0806542 -1.19917)
(49.9898 -0.157221 -1.23663)
(50.8182 -0.320828 -1.25899)
(52.5093 -0.204614 -0.951173)
(52.7917 0.316794 -0.693094)
(52.2746 0.44469 -0.640659)
(51.0676 1.01594 -0.572206)
(48.384 1.15608 -0.319629)
(46.0466 0.205983 0.205739)
(46.1646 -0.303331 0.323423)
(46.8886 -0.533827 0.362328)
(48.1788 -0.742756 0.117218)
(50.0987 -0.790423 -0.0746495)
(51.9538 -0.413948 0.382934)
(52.4832 -0.112994 0.804599)
(52.6847 -0.122148 0.856239)
(53.6258 -0.146932 1.03778)
(53.9326 0.109548 1.19534)
(53.6381 0.208224 1.23448)
(52.8727 0.420389 1.28022)
(51.4736 0.584697 1.28921)
(49.9636 0.494094 0.964096)
(48.9944 0.352269 0.516054)
(48.3491 0.206827 0.31012)
(47.3955 0.1829 0.287131)
(46.9348 0.0192376 0.3381)
(47.0983 -0.121407 0.352379)
(47.7256 -0.166461 0.387821)
(48.6835 -0.0636501 0.474883)
(48.7053 0.0668233 0.500936)
(48.3859 0.108047 0.526946)
(47.8157 0.0640455 0.523411)
(47.3945 -0.0663492 0.484079)
(47.4683 -0.166097 0.480027)
(47.8717 -0.330948 0.473448)
(48.9688 -0.552474 0.464081)
(51.1307 -0.666564 0.479491)
(53.5043 -0.402057 0.556264)
(53.68 0.081409 0.576371)
(52.8851 0.303885 0.597944)
(50.8019 0.478003 0.705193)
(48.9133 0.172138 0.697662)
(48.053 0.0733836 0.487764)
(47.8431 -0.0755416 0.407668)
(48.1882 -0.166134 0.365668)
(49.3235 -0.330841 0.345514)
(51.1917 -0.41033 0.258865)
(52.9119 -0.277999 0.602991)
(53.6498 -0.0536553 0.749225)
(53.8966 0.0549421 0.823158)
(54.0845 0.0560615 0.883926)
(54.2376 -0.0503026 0.958941)
(54.6446 -0.109109 0.926906)
(55.3468 0.0303533 0.624724)
(54.9309 0.281783 0.572854)
(53.0258 0.827132 0.37629)
(47.3938 1.06086 0.0171154)
(42.252 0.524476 0.143673)
(41.8089 0.0234381 0.185269)
(41.6395 0.0179475 0.699365)
(41.952 -0.0618181 1.23455)
(42.8068 -0.142231 1.11708)
(43.928 -0.190909 1.20712)
(45.636 -0.20097 2.29959)
(47.7123 -0.203437 2.37958)
(48.2503 0.13712 1.98854)
(48.0145 0.208766 1.7882)
(47.233 0.313655 1.54021)
(45.9955 0.735726 0.833731)
(44.0774 1.40543 0.215998)
(41.5354 2.77911 0.0046591)
(31.0574 4.51926 -0.0276318)
(23.7552 0.227116 -0.0040324)
(14.5749 1.61093 -0.000300078)
(11.1324 0.129477 -1.03877e-05)
(10.3973 0.0893498 -2.78162e-07)
(9.85626 0.0701395 -1.34024e-08)
(9.51695 0.061454 -3.72309e-10)
(9.18674 0.0464918 7.7402e-11)
(9.08794 0.02658 6.34682e-11)
(9.00154 0.0220764 8.06299e-11)
(8.92488 0.0103585 6.73237e-11)
(48.204 -2.0036 -1.35728)
(47.5088 -2.14381 -2.12929)
(48.9966 -1.76846 -2.0447)
(50.3536 -1.35648 -1.87407)
(50.7336 -0.872662 -0.674664)
(50.8551 -0.555095 -0.10033)
(50.7345 -0.479838 0.45165)
(50.4081 -0.370737 0.969901)
(49.6759 -0.00818976 1.17735)
(48.5264 0.265254 1.01821)
(47.4519 0.471294 0.413402)
(46.7758 0.503468 -0.154122)
(46.7554 0.332606 -0.336404)
(47.3381 0.0762534 -0.56547)
(48.602 0.0139106 -0.698589)
(49.7884 0.0970531 -0.638013)
(49.8163 0.0581879 -0.608447)
(49.3612 0.0256183 -0.580103)
(48.6441 -0.226104 -0.493932)
(48.7302 -0.539282 -0.462165)
(49.2236 -0.900356 -0.488148)
(50.8218 -1.03616 -0.47152)
(52.0151 -0.000160151 -0.348185)
(51.7986 0.24315 -0.314255)
(51.3808 0.708879 -0.240896)
(50.209 1.01417 -0.038673)
(47.987 0.849653 -0.0407529)
(46.999 -0.00137257 -0.452105)
(47.1413 -0.252153 -0.511765)
(47.6014 -0.624336 -0.599304)
(48.9508 -0.866058 -0.67679)
(50.3554 -0.554362 0.109025)
(50.8261 -0.269119 0.92976)
(51.2482 -0.457561 1.06913)
(52.4465 -0.604494 1.14314)
(52.9717 0.0490168 1.23077)
(52.6911 0.262069 1.23557)
(51.87 0.610889 1.29876)
(50.3242 0.705449 1.48232)
(48.6525 0.586864 1.3373)
(47.3005 0.501515 0.76545)
(46.2187 0.546044 0.296436)
(45.1731 0.451599 0.384616)
(44.8562 0.0688041 0.625636)
(45.1745 -0.203679 0.742789)
(46.3936 -0.402181 0.878385)
(48.2433 -0.27353 0.773399)
(48.7265 0.16377 0.641964)
(48.4161 0.244191 0.611521)
(47.552 0.273586 0.615441)
(46.7911 0.0705954 0.722101)
(46.874 -0.0804039 0.75706)
(47.3189 -0.360699 0.799174)
(48.7666 -0.685832 0.804675)
(51.7363 -0.831765 0.680571)
(55.1079 -0.529267 0.490145)
(55.4456 0.225609 0.444931)
(54.3864 0.594345 0.518494)
(51.6037 0.824791 0.746292)
(49.0291 0.516169 0.361164)
(47.5915 0.358092 -0.321251)
(47.1693 -0.000879135 -0.607139)
(47.5315 -0.271775 -0.674154)
(48.7541 -0.554636 -0.690384)
(50.797 -0.567442 -0.554267)
(52.6838 -0.367839 0.157248)
(53.4807 -0.0987231 0.462332)
(53.7316 -0.0913187 0.578386)
(53.9158 -0.145197 0.631006)
(54.071 -0.0794426 0.696213)
(54.4484 -0.16519 0.714967)
(55.5053 -0.0597683 0.596044)
(55.4605 0.385828 0.517606)
(53.7408 1.31314 0.466353)
(48.5126 1.85044 0.111218)
(43.0647 0.866683 -0.158724)
(42.0408 0.109077 0.379259)
(41.6926 0.132945 0.529204)
(41.8337 0.0894349 0.661226)
(42.3652 -0.000995885 0.696285)
(43.1452 -0.0993527 1.02659)
(44.5958 -0.332718 1.57202)
(46.6632 0.0142504 1.97883)
(47.534 0.357579 2.09657)
(47.4003 0.472473 2.07396)
(46.6982 0.463405 2.08253)
(45.503 1.02849 1.57341)
(43.3769 2.35624 0.701992)
(40.217 4.946 0.18564)
(27.4871 6.84888 0.0331778)
(19.5697 -3.28637 0.000421638)
(13.762 2.85879 -8.11822e-05)
(10.9723 0.223236 -4.16605e-06)
(10.4035 0.144003 -1.34001e-07)
(9.85522 0.115482 -7.55655e-09)
(9.50968 0.100506 -2.07838e-10)
(9.18528 0.0761564 4.13521e-11)
(9.08197 0.0440356 3.3609e-11)
(8.99406 0.0363242 4.44612e-11)
(8.91777 0.0167407 4.01775e-11)
(51.3827 0.277954 2.28269)
(48.2589 -1.01961 0.830389)
(48.4046 -0.783032 0.197493)
(48.1329 -0.31392 -0.464682)
(48.3189 -0.238401 -0.770647)
(48.7532 -0.208993 -0.784832)
(49.1272 -0.00279179 -0.503609)
(49.4464 0.476627 0.0212156)
(49.1582 0.731027 0.267901)
(48.2542 0.906932 0.4648)
(47.0178 0.80675 0.55094)
(46.0617 0.323559 0.49039)
(45.6583 -0.583427 0.319262)
(45.9406 -1.19166 0.0638313)
(46.9932 -1.47881 -0.300948)
(48.8208 -0.98351 -0.692953)
(49.6903 0.0961908 -0.916403)
(49.5633 0.432274 -0.969463)
(49.1822 0.492905 -0.730466)
(48.9173 -0.212212 0.55363)
(49.2082 -0.636854 1.3143)
(50.5281 -1.0586 1.35308)
(51.4974 0.0275797 0.309055)
(51.1991 0.397241 -0.0122263)
(50.5295 1.14296 -0.575245)
(48.543 1.79521 -0.841167)
(45.4873 1.28858 -0.233139)
(44.8796 -0.00383471 0.107501)
(45.2861 -0.412787 0.133042)
(46.2641 -0.941599 0.329243)
(48.3687 -1.26234 0.786044)
(50.1075 -0.777332 0.858347)
(50.4538 -0.375125 0.851523)
(50.7336 -0.510078 0.955926)
(51.7018 -0.663367 0.792414)
(52.0829 0.152419 0.384989)
(51.7246 0.435439 0.317628)
(50.752 0.938766 0.338757)
(48.871 1.29327 0.20145)
(46.3892 1.18751 -0.543819)
(43.8565 0.991577 -0.885006)
(42.6212 0.733557 0.39469)
(42.3654 0.504159 1.22769)
(42.5494 0.19054 1.49643)
(43.5824 -0.389726 2.09189)
(45.8114 -0.945711 2.45108)
(48.6548 -0.859285 1.74666)
(49.481 -0.0986466 1.13796)
(49.2002 0.259244 1.06762)
(48.1019 0.414807 0.875206)
(46.9525 0.119959 0.19585)
(46.9726 -0.151995 0.013496)
(47.4862 -0.539976 -0.202182)
(49.1587 -1.33441 -0.58038)
(52.5982 -2.07167 -0.838132)
(57.2216 -1.48838 -0.308208)
(57.8186 0.300611 0.0841034)
(56.6529 1.0902 0.30557)
(53.1027 1.59754 0.651135)
(49.4936 0.922449 -0.0127642)
(47.3651 0.521728 -0.861243)
(46.8422 0.10961 -1.11992)
(47.2123 -0.259542 -1.17412)
(48.5533 -0.896341 -1.46155)
(50.9039 -1.22707 -1.55179)
(53.127 -0.882442 -0.601549)
(54.1394 -0.271058 -0.0656008)
(54.2981 0.0176049 0.449438)
(54.4062 0.0855511 0.574939)
(54.501 -0.0493809 0.787965)
(54.8339 -0.363472 0.937386)
(56.0228 -0.220655 0.808182)
(56.263 0.484209 0.578342)
(54.991 1.68838 0.450382)
(50.3736 2.48292 0.340354)
(44.5031 1.51465 0.0640022)
(42.1176 0.399509 0.173328)
(41.4804 0.371167 0.2645)
(41.5488 0.306311 0.267989)
(41.9755 0.163083 0.289365)
(42.6746 0.0229241 0.618888)
(44.0825 -0.253173 0.706258)
(46.0199 -0.148114 1.11088)
(46.7758 0.454158 1.66406)
(46.6114 0.773028 1.80532)
(45.7447 0.818689 2.0094)
(44.4746 1.2796 1.73852)
(42.3733 3.08335 0.891934)
(39.0113 6.75806 0.348472)
(24.1289 9.80607 0.135744)
(18.3232 -1.09261 0.00841445)
(13.9638 2.36875 0.000418572)
(10.9912 0.341713 1.73214e-05)
(10.4379 0.196921 3.4497e-07)
(9.8521 0.164707 1.06319e-08)
(9.49956 0.139895 2.13073e-10)
(9.18195 0.105075 1.3558e-11)
(9.07465 0.0618376 4.46139e-12)
(8.98654 0.0503727 1.39439e-11)
(8.90955 0.0233064 1.66947e-11)
(43.6929 2.2794 2.01209)
(45.0756 0.0261143 1.11387)
(46.0498 -1.06257 0.878414)
(47.1954 -1.38473 0.400064)
(48.5938 -1.44173 -0.560774)
(49.9186 -1.05663 -0.977426)
(50.9099 -1.05462 -1.7113)
(52.0221 -0.796396 -1.87874)
(53.3636 0.0573416 -1.05469)
(53.6084 0.780827 -0.193998)
(53.2133 0.869978 -0.0287414)
(52.4723 0.776801 0.234273)
(50.6229 0.363359 0.455637)
(48.5638 -0.193544 0.163467)
(47.6883 -1.07524 -0.831072)
(47.405 -0.959658 -0.967276)
(47.3453 -0.288422 -0.310191)
(47.1942 0.0521226 0.0982836)
(46.8664 0.00587187 0.671638)
(47.0329 -0.445325 0.928434)
(47.6665 -1.14012 1.0732)
(49.4882 -1.55702 1.409)
(50.7423 -0.176144 1.7875)
(50.3205 0.416355 1.84177)
(49.366 1.40823 2.00856)
(47.5007 2.34299 1.90965)
(44.9209 1.79408 0.93837)
(44.5483 0.0857167 0.284975)
(45.0365 -0.475554 0.0347744)
(46.1679 -1.38347 -0.336181)
(48.2392 -1.85385 -0.164579)
(50.3844 -1.02052 0.389046)
(51.1434 -0.360035 0.680264)
(51.5306 -0.716029 0.740391)
(52.679 -0.897176 0.606401)
(53.2174 0.108291 0.358888)
(52.8604 0.511805 0.352172)
(51.8231 1.28323 0.479189)
(49.6952 1.82094 -0.383124)
(46.6605 1.87332 -1.63134)
(43.2531 1.54113 -0.558019)
(41.7743 0.893201 1.41727)
(41.5807 0.631284 2.15131)
(41.8334 0.302072 2.42)
(43.003 -0.300023 3.04249)
(45.306 -1.1776 3.56265)
(48.3295 -1.26607 2.94285)
(50.1078 -0.512293 1.82624)
(50.0168 -0.0809699 1.65346)
(49.1369 0.292333 1.38549)
(47.7739 0.117418 0.531856)
(47.5958 -0.0909406 0.202928)
(48.1777 -0.380818 0.0983561)
(50.1038 -1.18806 -0.110686)
(53.3827 -2.27187 -0.421832)
(58.3072 -2.08812 -0.37188)
(60.6117 0.00457669 -0.0402277)
(59.4788 1.21329 0.0937605)
(55.2053 2.18243 0.310074)
(50.4108 1.62245 0.0170574)
(47.4395 1.24365 -0.448438)
(46.4757 0.732442 -0.665172)
(46.8288 0.406156 -0.753384)
(48.2752 -0.433113 -0.993862)
(50.9869 -1.41867 -1.1529)
(54.0622 -1.74746 -1.18836)
(55.8715 -1.27387 -0.321796)
(55.9509 -0.879297 0.0297875)
(55.7906 -0.485488 0.286668)
(55.4317 -0.140897 0.809508)
(55.4682 -0.321321 1.10107)
(56.2314 -0.357552 1.19341)
(56.9132 0.129324 0.857658)
(56.0416 1.78313 0.696488)
(52.2032 3.11482 0.532759)
(46.2533 2.26679 0.260559)
(42.3509 0.832212 0.124932)
(41.3509 0.616246 0.0771629)
(41.3486 0.515556 0.0495509)
(41.6802 0.399194 0.0608531)
(42.3404 0.177564 0.326206)
(43.8618 -0.273105 0.341867)
(46.0398 -0.0797114 0.675596)
(46.2513 0.724472 0.997599)
(46.0001 1.15492 1.14642)
(44.8803 1.10001 1.40762)
(43.5508 1.76756 1.39588)
(41.3955 4.18575 0.822215)
(37.6546 8.85569 0.376595)
(21.2109 11.9458 0.164432)
(17.4892 0.839064 0.00994635)
(13.844 2.14097 0.000682994)
(10.9032 0.489251 2.9587e-05)
(10.441 0.261849 5.60325e-07)
(9.84386 0.215481 1.71019e-08)
(9.48838 0.179907 3.63845e-10)
(9.17812 0.134904 3.53899e-12)
(9.06732 0.0801817 -4.81756e-12)
(8.97824 0.0650119 -4.41778e-12)
(8.8993 0.0299515 -1.05229e-11)
(52.3413 -3.3198 0.423526)
(52.7575 -2.20848 -0.27684)
(52.5904 -1.20263 -0.422728)
(51.525 -1.01987 -0.291132)
(49.8025 -0.989475 -0.336996)
(48.4599 -0.870303 -1.6032)
(48.4818 -0.741703 -1.8121)
(48.9358 -0.65754 -1.84348)
(49.8316 -0.361377 -1.81264)
(50.7794 0.606642 -0.270292)
(50.6952 1.00779 0.151286)
(49.9168 1.49086 0.439918)
(48.6778 1.31091 0.490058)
(47.8648 0.362517 0.564078)
(48.0324 -0.222463 0.619685)
(48.6764 -0.401714 0.348894)
(48.8398 0.243627 0.0241742)
(48.5923 0.484139 -0.0704979)
(47.7398 0.451127 -0.0749899)
(47.4539 -0.536936 -0.0903004)
(47.921 -1.32522 -0.187189)
(49.4689 -2.05061 -0.235203)
(50.9492 -0.224923 0.223331)
(50.5998 0.811653 0.358947)
(49.4025 1.9015 0.67794)
(47.1856 2.80868 0.931176)
(44.0908 2.22518 0.0607736)
(43.1078 -0.164335 -0.511246)
(43.5717 -0.776661 -0.500749)
(44.8306 -1.72002 -0.603549)
(47.0137 -2.23949 -0.709629)
(49.2104 -1.56758 -0.395546)
(50.3838 -0.696891 -0.583633)
(51.0827 -0.842243 -0.958793)
(52.4624 -1.09785 -1.04534)
(53.4723 0.230684 -0.55076)
(53.2353 0.769248 -0.409943)
(52.3772 1.69977 -0.232314)
(50.2094 2.55152 -0.703225)
(46.8616 2.91743 -1.25186)
(42.9391 2.45921 -0.0426609)
(41.2515 1.21512 1.3541)
(41.1202 0.866497 1.74798)
(41.4041 0.5154 1.92589)
(42.6313 -0.147175 2.37729)
(45.0006 -1.12816 2.92977)
(47.9693 -1.37523 2.86326)
(50.3961 -0.756081 2.12447)
(50.689 -0.350381 1.88747)
(50.1355 -0.178197 1.79708)
(49.008 -0.214768 0.873607)
(48.7882 -0.474223 0.325998)
(49.4599 -0.466347 0.206269)
(51.4743 -1.10047 0.0258313)
(54.7984 -2.86416 -0.29985)
(59.7479 -3.17472 -0.473026)
(63.3914 -1.26734 -0.208586)
(62.6632 0.761581 -0.0725563)
(57.9233 2.81522 0.200821)
(51.5577 1.99993 -0.0657509)
(47.4689 1.9295 -0.603697)
(46.2358 1.33215 -0.859927)
(46.5907 0.998996 -0.916776)
(48.1909 0.176752 -0.997058)
(51.0907 -0.982676 -1.1021)
(54.442 -1.5368 -1.13111)
(57.7125 -1.74373 -0.947935)
(60.4299 -1.92023 -0.608713)
(60.7768 -1.80129 -0.422047)
(59.4627 -1.18118 -0.063319)
(57.345 -0.819998 0.851115)
(57.1871 -0.558072 1.06108)
(57.4921 0.0850842 0.902525)
(57.0567 1.72037 0.760443)
(53.8622 3.43245 0.673553)
(48.2212 3.00449 0.427235)
(43.1309 1.47147 0.132869)
(41.3956 0.968512 -0.0617264)
(41.235 0.778994 -0.106373)
(41.4831 0.631761 -0.0708012)
(42.1379 0.346175 0.133076)
(43.7954 -0.247942 0.104882)
(46.1249 0.0791176 0.369255)
(46.1084 0.91535 0.500108)
(45.6393 1.52629 0.638895)
(44.1534 1.52928 0.901591)
(42.58 2.24567 1.09738)
(40.3155 5.07681 0.718657)
(36.154 11.018 0.375219)
(19.4874 12.6377 0.174128)
(16.4123 3.13629 0.00783799)
(13.6917 1.68654 0.000620385)
(10.8407 0.632671 2.71909e-05)
(10.4226 0.319911 4.82351e-07)
(9.83085 0.266835 1.3947e-08)
(9.47401 0.218926 3.00658e-10)
(9.17111 0.16324 -1.06465e-11)
(9.05809 0.0987593 -1.84934e-11)
(8.96893 0.079746 -2.82583e-11)
(8.88757 0.0369256 -3.1237e-11)
(50.2179 1.91809 -0.828479)
(47.6027 0.281182 -1.87639)
(45.9118 -0.282769 -2.06947)
(45.5269 0.0406247 -1.91234)
(45.8199 0.031455 -1.69826)
(46.5012 -0.485279 -1.39613)
(47.6491 -1.355 -1.33091)
(49.278 -1.5917 -0.854976)
(49.5544 -1.10119 -0.480993)
(49.1288 -0.0229303 -0.200917)
(48.0952 0.724888 0.375637)
(46.5615 1.24218 1.09695)
(46.4344 0.711632 1.35728)
(46.8891 -0.0815717 1.47178)
(47.8421 -1.38252 1.31455)
(49.144 -1.30419 0.442048)
(49.2471 -0.240471 0.148898)
(48.7617 0.459991 -0.0803568)
(47.6274 0.5648 -0.775935)
(47.4151 -0.445898 -1.19974)
(47.951 -1.60017 -1.38316)
(49.6514 -2.23984 -1.43905)
(51.7269 -0.556992 -0.9244)
(51.5271 0.763753 -0.722225)
(50.046 2.37803 -0.411353)
(47.162 3.74755 -0.335614)
(43.3091 2.90674 -0.194076)
(42.5877 0.396763 -0.0311045)
(43.1355 -0.786736 0.141651)
(44.6243 -2.24495 0.463256)
(46.913 -3.08248 0.458708)
(49.1583 -1.93602 0.271438)
(50.4228 -0.880114 -0.258828)
(51.2275 -1.29381 -0.982554)
(52.6629 -1.59857 -1.28855)
(53.7914 -0.0739523 -0.782461)
(53.6521 0.633395 -0.635596)
(52.8237 1.97263 -0.47646)
(50.5376 3.32583 -0.71673)
(47.1174 3.71722 -0.911089)
(42.9523 3.12656 -0.0830013)
(40.8732 1.517 0.860698)
(40.7077 1.05737 1.10356)
(40.9996 0.628821 1.17898)
(42.3501 -0.193112 1.42399)
(44.8119 -1.1162 1.89825)
(47.9029 -1.31995 2.18171)
(50.9404 -0.525259 2.11233)
(52.3342 -0.13119 2.08124)
(52.2763 -0.0205208 2.16813)
(51.9091 -0.385096 1.4215)
(51.9074 -0.806419 0.748519)
(52.6141 -0.640026 0.517161)
(54.8825 -1.1714 0.395716)
(58.6752 -2.4968 0.327479)
(63.3395 -2.82057 0.182955)
(67.3071 -1.79261 -0.0347666)
(66.9679 0.123044 -0.023394)
(62.1056 2.82938 0.111132)
(53.2049 2.75035 -0.204848)
(47.4607 2.5201 -0.606981)
(45.7833 1.90995 -0.72339)
(46.1275 1.43983 -0.73109)
(47.8025 0.695053 -0.719382)
(50.8914 -0.318827 -0.727236)
(54.5087 -1.11906 -0.709286)
(58.2813 -1.4982 -0.645801)
(61.7739 -1.9983 -0.379902)
(63.1329 -2.69404 -0.15434)
(62.5861 -2.26734 -0.0840115)
(60.3342 -2.2879 0.142234)
(59.1544 -2.09475 0.324809)
(59.3918 -0.94624 0.472182)
(58.9353 1.30172 0.569948)
(55.9735 3.90316 0.6239)
(50.3587 3.68582 0.42984)
(44.2552 2.22713 0.193469)
(41.4655 1.4031 0.103061)
(41.0943 1.03167 0.0908233)
(41.2836 0.926686 0.131758)
(41.9626 0.527511 0.200035)
(43.7866 -0.224111 0.160455)
(46.2521 0.183622 0.260548)
(46.14 1.28359 0.307203)
(45.4398 2.0147 0.327007)
(43.6296 1.97993 0.473555)
(41.8675 2.89691 0.68631)
(39.3595 6.39842 0.534056)
(34.6422 13.0609 0.33324)
(16.9031 12.0496 0.147549)
(15.3605 5.00405 0.00748548)
(13.4166 1.3274 0.000825465)
(10.8399 0.756473 3.41144e-05)
(10.3942 0.381488 6.55786e-07)
(9.81342 0.315366 2.12211e-08)
(9.45826 0.258228 5.59297e-10)
(9.16201 0.192323 -1.78272e-12)
(9.04686 0.117432 -1.91599e-11)
(8.95793 0.0947853 -3.04053e-11)
(8.8744 0.0439838 -2.98946e-11)
(49.1337 0.351698 0.480609)
(51.3452 1.18162 0.602241)
(50.4338 0.667214 0.406698)
(48.0947 -0.331192 0.355437)
(46.3838 -1.05572 0.354659)
(46.5806 -1.31057 0.285564)
(47.6937 -1.57836 0.0663636)
(49.4222 -1.25248 -0.124104)
(51.5479 0.24263 -0.0903214)
(51.2658 0.968289 -0.0717844)
(50.2798 1.97591 -0.0638176)
(48.5025 2.22403 0.337535)
(47.7605 0.600429 0.754796)
(48.0979 -0.203886 0.836247)
(48.7478 -1.00953 0.946649)
(50.1186 -0.844793 0.790621)
(50.7451 0.472791 0.552852)
(50.3919 0.901746 0.456504)
(49.2967 0.725148 0.218768)
(48.4157 -0.494638 -0.110973)
(48.862 -2.10652 -0.0648502)
(50.0939 -3.3008 0.0501302)
(52.6391 -1.27129 -0.230011)
(52.8382 1.71042 -0.36664)
(51.4125 3.20197 -0.358702)
(48.3931 4.92 -0.340394)
(44.8439 3.7453 0.124844)
(43.3561 -0.0731652 0.565424)
(43.7325 -1.02614 0.683938)
(44.9647 -2.78465 1.05434)
(47.2505 -3.9218 1.37646)
(49.8132 -3.26194 0.99249)
(51.5352 -1.53976 -0.0107367)
(52.7248 -1.54561 -0.660663)
(54.5157 -1.82792 -0.905888)
(55.8447 0.0357392 -0.905573)
(55.6762 1.03385 -0.873018)
(54.6974 2.5339 -0.817221)
(51.8989 3.92182 -0.835712)
(47.652 4.77147 -0.747452)
(42.876 4.31672 -0.232307)
(40.519 2.0403 0.37412)
(40.2464 1.37107 0.606691)
(40.5062 0.913035 0.715354)
(41.9326 0.01088 0.947277)
(44.6129 -1.17427 1.52925)
(47.8334 -1.54146 1.63099)
(50.8964 -0.597334 1.79489)
(52.9865 0.144437 2.31311)
(53.9873 0.223797 1.89993)
(54.5191 -0.280537 1.4803)
(54.9845 -0.631845 1.29652)
(56.1849 -0.692232 1.1072)
(58.5728 -1.31727 0.92982)
(62.2399 -2.9227 0.688346)
(66.5652 -4.31028 0.447677)
(71.822 -2.97116 0.176776)
(72.143 -0.419806 0.143217)
(67.6469 2.89533 0.214949)
(55.5698 4.18844 -0.166917)
(47.4124 2.45984 -0.574228)
(45.5429 2.68012 -0.644871)
(45.7359 1.90922 -0.64466)
(47.4812 1.1771 -0.619144)
(50.7987 0.147234 -0.56659)
(54.6307 -0.534683 -0.522924)
(58.4674 -1.23566 -0.3496)
(61.5606 -1.65797 0.00521539)
(62.4037 -2.67985 0.158606)
(61.9547 -2.43413 0.180293)
(60.5679 -2.93604 0.161912)
(60.1991 -3.72232 0.0903148)
(61.3704 -3.06943 0.135044)
(61.7106 0.195837 0.268523)
(59.0854 3.59137 0.362408)
(52.4912 4.31967 0.349216)
(45.1616 3.0503 0.184697)
(41.403 1.94896 -0.0131636)
(40.8705 1.31325 -0.0782236)
(41.0182 1.20347 -0.0564997)
(41.7143 0.744958 -0.0112771)
(43.7642 -0.194464 -0.0531017)
(46.3984 0.317308 0.140032)
(46.2265 1.63576 0.216876)
(45.2696 2.52102 0.244264)
(43.1643 2.51893 0.388885)
(41.218 3.46159 0.537255)
(38.4631 7.601 0.423976)
(32.8582 15.4089 0.290407)
(15.5507 10.1362 0.108604)
(15.0118 6.49716 0.00672791)
(13.0737 1.19512 0.000776184)
(10.8511 0.880812 2.36507e-05)
(10.3627 0.450401 4.87359e-07)
(9.7956 0.364831 1.63672e-08)
(9.44008 0.296223 4.45961e-10)
(9.14961 0.220024 -2.87444e-12)
(9.03294 0.136313 -1.6338e-11)
(8.94425 0.109926 -2.22941e-11)
(8.85976 0.051316 -1.55855e-11)
(47.1667 -2.60467 -1.61502)
(48.8669 -1.05005 0.295029)
(48.957 1.15036 0.661921)
(48.2488 1.55519 0.394522)
(46.1182 0.723721 -0.24404)
(45.0255 -1.67115 -0.792971)
(45.236 -3.14156 -0.855102)
(45.9622 -3.81725 -0.870657)
(47.5464 -2.93892 -0.650585)
(48.0074 0.919614 -0.169035)
(47.5595 1.65751 -0.0685824)
(46.4349 2.16213 0.0614925)
(45.0191 0.536485 0.256654)
(45.2363 -0.60966 0.356414)
(46.1728 -2.28864 0.838005)
(48.3417 -2.64175 0.816424)
(50.0842 -0.373792 -0.111309)
(49.8394 1.19908 -0.370731)
(49.0062 1.86046 -0.711511)
(47.9838 0.270278 0.1988)
(48.2795 -1.55443 0.604414)
(49.8739 -4.01266 1.32992)
(53.5306 -2.85582 0.863308)
(54.2066 1.30508 0.246643)
(52.2928 4.45094 -0.0715104)
(49.4216 6.25092 -0.66614)
(46.4161 4.90364 -0.556531)
(43.2817 1.86698 0.0419977)
(42.9216 0.690179 0.277588)
(43.9003 -0.786683 0.477629)
(46.1614 -3.74578 0.94033)
(49.3357 -5.4035 0.740849)
(52.2173 -3.34529 0.0272951)
(54.5694 -4.33911 0.124035)
(57.3983 -5.81059 0.427681)
(58.9489 -1.86508 -0.132971)
(58.5917 0.338361 -0.248085)
(56.714 3.35851 -0.293847)
(52.519 5.68219 -0.663735)
(47.7707 5.99247 -0.928223)
(42.7432 5.11391 -0.209558)
(39.9901 2.49294 0.940821)
(39.6842 1.7741 1.32045)
(39.9574 1.24063 1.30808)
(41.5752 0.118475 1.74594)
(44.5596 -1.12661 1.96342)
(48.206 -1.51004 1.91926)
(51.4149 -0.695858 1.97939)
(53.3683 0.207006 2.31175)
(54.3569 0.739984 1.9929)
(54.8402 0.17936 1.46314)
(55.4797 -0.570255 1.24605)
(56.9546 -0.947151 1.05428)
(59.5787 -1.62243 0.878553)
(63.3486 -2.84438 0.652145)
(67.366 -3.6225 0.414394)
(72.6865 -2.95267 0.124287)
(73.4956 -1.028 0.0270787)
(70.7065 1.79026 0.0659584)
(59.4731 5.55746 -0.152534)
(47.9589 2.26612 -0.479426)
(45.7131 3.11496 -0.494752)
(45.7874 2.23174 -0.466643)
(47.5209 1.56818 -0.348852)
(50.7762 0.663888 -0.141726)
(54.649 -0.00161709 0.0612023)
(58.2721 -0.527759 0.180049)
(60.6617 -1.40222 0.245343)
(61.1482 -2.53768 0.267162)
(60.6621 -2.48168 0.258812)
(59.9663 -3.09503 0.29367)
(60.2445 -4.28839 0.338896)
(61.719 -5.57752 0.328359)
(64.3916 -2.02958 0.27374)
(62.6886 3.13919 0.317143)
(54.8244 5.25262 0.291843)
(46.0661 3.67271 0.10299)
(41.4447 2.72985 -0.0377429)
(40.5827 1.5937 -0.0717842)
(40.7274 1.52191 -0.0499717)
(41.5071 0.944306 0.0400173)
(43.8304 -0.168321 0.146675)
(46.6588 0.456947 0.302001)
(46.4427 2.06925 0.326374)
(45.177 3.12772 0.33511)
(42.7792 3.06374 0.468624)
(40.6846 4.22408 0.503701)
(37.6004 9.03831 0.364848)
(30.9908 17.3914 0.261858)
(15.5953 7.75284 0.0799841)
(14.5271 7.63428 0.00455719)
(12.4105 1.37728 0.000539206)
(10.828 0.96495 1.29984e-05)
(10.3486 0.513116 4.12261e-07)
(9.78032 0.411552 1.67321e-08)
(9.41899 0.334959 5.08091e-10)
(9.1336 0.248499 7.08089e-13)
(9.01556 0.15516 -1.24468e-11)
(8.9284 0.125017 -1.50421e-11)
(8.84491 0.0584505 -8.77563e-12)
(51.8291 1.45915 0.27308)
(51.6913 1.11102 -0.148905)
(50.2371 1.23787 -0.346053)
(49.3135 1.70047 -0.707293)
(48.6562 1.51559 -1.09763)
(48.0698 0.386936 -1.50113)
(48.3449 -0.606638 -1.71696)
(49.531 -1.63845 -1.79444)
(49.9616 -0.807919 -1.80274)
(49.1604 0.745525 -1.74329)
(47.326 2.98773 -1.68894)
(44.5022 3.99865 -1.16826)
(42.321 2.02997 -0.635372)
(42.5914 1.06106 -0.565326)
(44.3299 -1.36796 -0.61962)
(47.6837 -3.68579 -0.170385)
(51.5047 -1.06658 0.264325)
(50.9951 1.6674 0.210149)
(49.7639 2.68341 0.0534035)
(47.4392 2.9295 0.933843)
(47.4776 1.5023 1.22287)
(50.0984 -3.42635 1.72131)
(56.0454 -7.50256 2.03578)
(60.315 -0.253961 0.733486)
(57.8448 4.85752 0.289946)
(51.6846 9.03422 -0.599564)
(45.4628 5.55565 -0.367358)
(41.8204 3.52797 0.337393)
(41.4675 2.47418 0.525163)
(42.4776 1.68953 0.546019)
(45.1552 -1.26185 0.516348)
(48.3153 -4.51693 0.543878)
(51.7413 -5.38061 0.233626)
(55.0349 -6.17469 0.0349905)
(58.2326 -8.22037 0.333869)
(61.7585 -6.54927 0.43041)
(64.072 -2.77359 0.385576)
(61.3952 1.02606 0.297354)
(54.2759 6.37977 -0.297732)
(47.7558 6.6163 -0.71502)
(41.9021 6.42924 -0.113832)
(39.0922 3.30459 0.580964)
(38.8987 2.2714 0.787333)
(39.1761 1.78786 0.872211)
(41.0285 0.702729 1.10746)
(44.5108 -1.02179 1.74625)
(48.6812 -1.93895 1.40831)
(51.9816 -0.688059 1.46163)
(53.3032 0.512255 1.96539)
(53.8608 1.0981 1.61862)
(54.0835 0.712066 1.02391)
(54.3881 -0.0399379 0.886905)
(55.7597 -0.614794 0.81929)
(58.4442 -1.49207 0.74463)
(62.309 -3.23131 0.385007)
(65.795 -4.98157 -0.0861676)
(70.431 -4.06308 -0.227639)
(73.3168 -1.05897 -0.207608)
(71.2867 1.70668 -0.17721)
(62.6619 5.7259 -0.231345)
(49.5205 3.42848 -0.374757)
(45.8443 3.19511 -0.386041)
(45.9643 2.69867 -0.375125)
(47.6037 2.09564 -0.369875)
(50.7832 1.2061 -0.351721)
(54.5904 0.445282 -0.229208)
(58.0717 -0.0465997 -0.0330408)
(60.4445 -0.781415 0.14738)
(61.6189 -2.48302 0.23362)
(61.5308 -2.5341 0.245894)
(61.3364 -2.54532 0.259631)
(61.5712 -4.23156 0.271639)
(62.8359 -6.44291 0.285435)
(65.7907 -4.56451 0.254919)
(64.9971 -0.101207 0.284268)
(57.1632 6.35226 0.244991)
(47.2579 3.6913 0.0495891)
(41.4171 3.57312 -0.0170278)
(40.1996 1.86832 -0.0194222)
(40.3762 1.80717 0.0165314)
(41.24 1.14791 0.118326)
(43.7833 -0.155607 0.222158)
(46.8909 0.585692 0.374101)
(46.7094 2.56926 0.399905)
(45.0835 3.80153 0.401882)
(42.3107 3.7045 0.539229)
(40.1031 4.90842 0.510756)
(36.5516 10.6346 0.332909)
(28.5106 19.5573 0.232925)
(16.6271 4.15858 0.061424)
(13.8793 8.0442 0.00223314)
(11.9582 1.40182 0.000245693)
(10.9404 1.0112 6.1857e-06)
(10.3522 0.584059 3.42521e-07)
(9.76469 0.464677 1.43576e-08)
(9.39475 0.373608 4.86238e-10)
(9.11495 0.27575 1.24924e-11)
(8.99634 0.173979 -2.50257e-12)
(8.9113 0.139725 -3.48808e-12)
(8.82966 0.0655409 -1.993e-12)
(28.7571 20.9261 0.871128)
(34.1257 5.98668 0.120339)
(36.0363 3.76719 -0.0745658)
(37.369 4.67915 -1.22409)
(37.2011 5.21835 -1.39549)
(36.5294 5.99591 -1.31241)
(36.4171 4.36343 -0.920368)
(37.8346 -0.568861 -0.735841)
(41.1434 -8.0299 -0.635532)
(44.1175 -1.08887 -0.976545)
(42.1725 3.48128 -1.1001)
(39.825 4.77591 -0.762769)
(37.5014 4.629 -0.397608)
(37.7842 4.68311 -0.227155)
(38.9721 1.79187 -0.316314)
(40.5349 -4.17394 -0.0738747)
(41.8996 -6.5681 0.414499)
(43.4754 -3.98777 0.70111)
(45.5688 1.52372 0.821886)
(44.2757 2.15487 1.02096)
(44.5898 1.98095 1.05604)
(47.1965 -2.01461 0.811347)
(51.7405 -5.46069 0.789598)
(61.1108 -4.98409 0.493547)
(61.1275 0.687462 0.197847)
(55.3053 8.57636 -0.367749)