/*--------------------------------*- C++ -*----------------------------------*\
| =========                 |                                                 |
| \\      /  F ield         | OpenFOAM: The Open Source CFD Toolbox           |
|  \\    /   O peration     | Version:  2.3.0                                 |
|   \\  /    A nd           | Web:      www.OpenFOAM.org                      |
|    \\/     M anipulation  |                                                 |
\*---------------------------------------------------------------------------*/
FoamFile
{
    version     2.0;
    format      ascii;
    class       volScalarField;
    location    "0.01";
    object      varZ;
}
// * * * * * * * * * * * * * * * * * * * * * * * * * * * * * * * * * * * * * //

dimensions      [0 0 0 0 0 0 0];

internalField   nonuniform List<scalar> 
5000
(
9.03623e-25
2.38674e-24
3.43647e-24
4.5754e-24
7.66983e-24
1.11123e-23
1.71985e-23
3.10398e-23
6.44334e-23
1.54334e-22
3.96602e-22
9.90563e-22
2.26705e-21
4.62878e-21
7.41909e-21
8.77486e-21
1.37048e-20
4.99507e-20
2.92092e-19
1.18514e-18
2.41165e-18
2.11534e-18
1.27176e-18
1.14887e-18
3.37177e-18
1.56133e-17
6.55124e-17
2.25432e-16
6.32116e-16
1.34863e-15
2.39311e-15
4.88494e-15
1.37029e-14
4.23486e-14
1.3244e-13
4.33435e-13
1.42763e-12
4.49338e-12
1.31315e-11
3.47427e-11
8.22649e-11
1.73412e-10
3.2566e-10
5.41022e-10
7.54473e-10
8.30869e-10
7.59664e-10
6.49141e-10
5.40193e-10
4.74918e-10
5.07842e-10
6.71183e-10
9.51748e-10
1.21031e-09
1.2082e-09
9.5546e-10
6.9383e-10
5.15044e-10
4.38422e-10
4.94098e-10
7.10615e-10
1.09842e-09
1.58023e-09
1.93661e-09
1.95927e-09
1.78042e-09
1.67102e-09
1.83471e-09
2.373e-09
3.40393e-09
5.15533e-09
8.36021e-09
1.4364e-08
2.57244e-08
6.5161e-08
1.92983e-07
4.55231e-07
8.75639e-07
1.45929e-06
2.18678e-06
3.01483e-06
3.96463e-06
5.01279e-06
5.79529e-06
5.87374e-06
5.69999e-06
5.35092e-06
4.91337e-06
4.4855e-06
4.22392e-06
2.22654e-06
6.13518e-08
1.50113e-09
3.57471e-11
7.64505e-13
1.46506e-14
2.54746e-16
4.08831e-18
6.16515e-20
8.41964e-22
8.54939e-23
4.46419e-22
8.52712e-22
1.27406e-21
2.00785e-21
2.41017e-21
2.68398e-21
3.31792e-21
6.29374e-21
1.69932e-20
4.93952e-20
1.39272e-19
3.81969e-19
8.95649e-19
1.36335e-18
1.26631e-18
1.39418e-18
4.70704e-18
3.15811e-17
1.51351e-16
3.55672e-16
3.24442e-16
1.73471e-16
1.14481e-16
2.17521e-16
9.57644e-16
4.28465e-15
1.57277e-14
4.5534e-14
9.29062e-14
1.37646e-13
1.94158e-13
4.09728e-13
1.0691e-12
2.76113e-12
7.78757e-12
2.40745e-11
7.47175e-11
2.24444e-10
6.30167e-10
1.62256e-09
3.78697e-09
7.94903e-09
1.48159e-08
2.35341e-08
2.81339e-08
2.53967e-08
2.04846e-08
1.60978e-08
1.31452e-08
1.28416e-08
1.68519e-08
2.58746e-08
3.70346e-08
3.97176e-08
3.07751e-08
2.08876e-08
1.4454e-08
1.15311e-08
1.29167e-08
1.95793e-08
3.2528e-08
4.9731e-08
6.31703e-08
6.22533e-08
5.14543e-08
4.12875e-08
3.76736e-08
4.10176e-08
4.99522e-08
6.06451e-08
7.26635e-08
9.30176e-08
1.33133e-07
2.08955e-07
4.48855e-07
1.10875e-06
2.24372e-06
3.82838e-06
5.77495e-06
7.94708e-06
1.02621e-05
1.24744e-05
1.50481e-05
1.86757e-05
2.02587e-05
1.90688e-05
1.41574e-05
7.64563e-06
7.41599e-06
6.06098e-06
2.92898e-07
6.91347e-09
1.56199e-10
3.20461e-12
5.93872e-14
1.00359e-15
1.57016e-17
2.31137e-19
3.08648e-21
3.68716e-21
3.55845e-20
9.71477e-20
1.72379e-19
3.09246e-19
3.97244e-19
4.24398e-19
3.76574e-19
7.74161e-19
2.38971e-18
7.94103e-18
2.52781e-17
8.42923e-17
1.98725e-16
2.82108e-16
2.21764e-16
1.72987e-16
4.65608e-16
3.03383e-15
1.52273e-14
3.93577e-14
4.13075e-14
2.20367e-14
1.28195e-14
1.53485e-14
5.25202e-14
2.18996e-13
7.87398e-13
2.42e-12
4.99161e-12
6.79104e-12
7.84909e-12
1.31726e-11
2.78746e-11
5.7799e-11
1.2626e-10
2.97197e-10
6.92012e-10
1.58252e-09
3.96788e-09
1.28425e-08
4.2625e-08
1.35779e-07
3.55513e-07
6.81798e-07
9.0738e-07
7.98538e-07
6.02417e-07
4.41697e-07
3.33204e-07
2.8034e-07
3.35736e-07
5.0619e-07
8.14905e-07
9.5978e-07
7.52156e-07
5.09797e-07
3.42629e-07
2.51323e-07
2.58188e-07
3.75942e-07
6.74671e-07
1.10509e-06
1.4858e-06
1.44251e-06
1.14844e-06
8.48064e-07
6.78592e-07
6.27481e-07
6.9149e-07
8.01711e-07
8.51116e-07
7.95121e-07
7.03236e-07
6.58163e-07
9.1819e-07
1.84499e-06
3.63954e-06
6.27253e-06
9.54457e-06
1.3164e-05
1.69737e-05
2.04409e-05
2.38004e-05
2.88571e-05
3.51484e-05
3.48691e-05
2.78531e-05
1.46014e-05
1.39078e-05
1.07221e-05
4.30585e-07
1.08474e-08
2.61796e-10
5.57213e-12
1.04433e-13
1.76175e-15
2.73502e-17
3.98128e-19
5.24934e-21
1.55041e-19
2.13298e-18
7.88707e-18
1.9623e-17
5.21558e-17
9.02688e-17
1.25702e-16
8.00629e-17
7.5714e-17
1.79081e-16
5.99394e-16
1.9862e-15
6.36441e-15
1.63218e-14
2.76448e-14
2.49336e-14
1.9202e-14
3.91721e-14
2.19657e-13
1.09206e-12
2.90519e-12
3.27902e-12
1.78987e-12
1.04048e-12
1.12107e-12
3.38861e-12
1.33037e-11
4.47288e-11
1.28306e-10
2.46441e-10
2.94037e-10
2.58255e-10
3.0041e-10
4.63991e-10
6.77137e-10
9.88195e-10
1.70361e-09
3.26597e-09
6.52358e-09
1.41677e-08
4.55231e-08
1.53997e-07
5.08582e-07
1.53286e-06
3.83512e-06
7.08115e-06
7.93707e-06
7.26128e-06
5.37229e-06
2.98838e-06
1.77014e-06
1.77616e-06
2.4817e-06
5.09481e-06
8.8713e-06
8.88977e-06
6.85083e-06
4.28569e-06
2.33337e-06
1.41226e-06
1.67491e-06
3.50047e-06
8.46217e-06
1.64567e-05
1.96539e-05
1.71052e-05
1.18832e-05
7.82582e-06
5.42399e-06
4.27334e-06
4.49561e-06
5.12103e-06
4.87863e-06
3.51036e-06
1.95173e-06
1.96078e-06
2.76604e-06
4.85318e-06
8.23536e-06
1.25621e-05
1.73623e-05
2.24593e-05
2.70844e-05
3.11812e-05
3.68173e-05
4.59884e-05
4.72999e-05
3.99514e-05
2.26206e-05
2.22574e-05
1.01126e-05
3.71065e-07
1.05144e-08
2.45589e-10
4.90948e-12
8.69773e-14
1.40613e-15
2.11566e-17
3.00868e-19
3.90036e-21
2.47872e-17
1.67863e-16
6.46115e-16
2.03107e-15
7.07929e-15
1.69364e-14
3.20422e-14
2.94181e-14
1.4611e-14
1.02559e-14
1.9077e-14
5.9856e-14
1.94026e-13
5.75425e-13
1.3267e-12
1.39391e-12
1.25584e-12
2.88772e-12
1.50455e-11
6.78003e-11
1.70577e-10
1.96164e-10
1.10228e-10
6.3556e-11
5.80475e-11
1.46133e-10
5.3783e-10
1.72872e-09
4.66503e-09
8.67953e-09
9.98632e-09
7.73601e-09
6.77303e-09
8.2068e-09
9.79148e-09
1.05351e-08
1.23133e-08
1.64817e-08
2.6301e-08
4.64376e-08
1.27394e-07
4.05429e-07
1.23305e-06
3.10436e-06
6.50369e-06
1.15907e-05
1.67047e-05
1.74939e-05
1.62775e-05
1.21753e-05
7.11096e-06
5.95238e-06
6.85228e-06
1.08629e-05
2.01218e-05
2.7993e-05
2.68281e-05
2.05799e-05
1.00912e-05
4.65574e-06
4.99762e-06
8.84073e-06
1.89042e-05
3.64789e-05
5.89467e-05
7.25178e-05
7.12884e-05
5.83902e-05
3.43696e-05
1.98887e-05
1.44093e-05
1.27641e-05
1.17841e-05
9.45017e-06
5.41972e-06
3.8601e-06
4.2917e-06
6.19225e-06
9.96889e-06
1.52057e-05
2.1195e-05
2.77048e-05
3.36562e-05
3.86614e-05
4.50711e-05
5.6286e-05
5.87805e-05
5.05537e-05
3.04841e-05
3.19429e-05
1.01846e-05
3.35348e-07
9.80695e-09
2.22953e-10
4.32096e-12
7.47879e-14
1.18944e-15
1.76685e-17
2.48371e-19
3.18747e-21
1.83947e-15
8.87681e-15
3.17561e-14
1.08348e-13
4.9175e-13
1.7155e-12
4.17651e-12
4.54905e-12
2.62458e-12
1.34718e-12
1.45791e-12
3.73535e-12
1.21143e-11
3.74117e-11
9.26411e-11
9.47321e-11
7.81749e-11
1.4717e-10
6.43805e-10
2.66627e-09
6.57735e-09
8.14385e-09
4.93239e-09
2.91446e-09
2.31815e-09
4.61895e-09
1.53843e-08
4.67019e-08
1.19526e-07
2.21628e-07
2.56592e-07
1.91919e-07
1.43036e-07
1.37834e-07
1.41912e-07
1.32265e-07
1.26273e-07
1.21501e-07
1.2805e-07
1.60931e-07
2.69517e-07
7.01317e-07
1.87649e-06
4.24322e-06
8.08846e-06
1.34802e-05
2.03332e-05
2.64279e-05
2.73667e-05
2.58297e-05
2.1182e-05
1.75913e-05
1.806e-05
2.24677e-05
3.4504e-05
5.36544e-05
5.70445e-05
5.11923e-05
3.19005e-05
1.2944e-05
1.04973e-05
1.4156e-05
2.5848e-05
4.70008e-05
7.68145e-05
0.000113556
0.000152171
0.00016889
0.00016166
0.000122418
6.32623e-05
3.28354e-05
2.38854e-05
1.80729e-05
1.13202e-05
6.79166e-06
6.65229e-06
8.0156e-06
1.17567e-05
1.76942e-05
2.49694e-05
3.32039e-05
4.08494e-05
4.71053e-05
5.4813e-05
6.8429e-05
7.12414e-05
6.06731e-05
3.8787e-05
4.26393e-05
8.62109e-06
2.46561e-07
6.48263e-09
1.37367e-10
2.58338e-12
4.44396e-14
7.1039e-16
1.06739e-17
1.52694e-19
2.00431e-21
1.17462e-13
6.19895e-13
2.50112e-12
1.06329e-11
5.17473e-11
1.87226e-10
4.42923e-10
4.84635e-10
2.55016e-10
1.20853e-10
1.05606e-10
2.44499e-10
8.14654e-10
2.80826e-09
6.35226e-09
6.16483e-09
4.37708e-09
6.23111e-09
2.06153e-08
7.32812e-08
1.74132e-07
2.39835e-07
1.62765e-07
1.00169e-07
6.97408e-08
9.77395e-08
2.62311e-07
6.76909e-07
1.83694e-06
3.92981e-06
5.00886e-06
3.72089e-06
2.57568e-06
2.11642e-06
1.83979e-06
1.43511e-06
1.19939e-06
1.00107e-06
8.23698e-07
6.42797e-07
6.71304e-07
1.15185e-06
2.57065e-06
5.41206e-06
1.00576e-05
1.64522e-05
2.39112e-05
3.19118e-05
3.9584e-05
4.32663e-05
4.43921e-05
4.51159e-05
4.66885e-05
5.3327e-05
6.97753e-05
9.80885e-05
0.000114516
0.000108446
7.87626e-05
3.38519e-05
1.87423e-05
2.13875e-05
3.33847e-05
5.75181e-05
9.29181e-05
0.000137979
0.000192054
0.000244402
0.000255169
0.000240958
0.000194814
0.000126033
6.49684e-05
3.87141e-05
2.39237e-05
1.22491e-05
9.6119e-06
1.05496e-05
1.40175e-05
2.04382e-05
2.90002e-05
3.91829e-05
4.8788e-05
5.65216e-05
6.59115e-05
8.24165e-05
8.52166e-05
7.1691e-05
4.83402e-05
4.27339e-05
4.9055e-06
1.23251e-07
3.09326e-09
6.66133e-11
1.30451e-12
2.36149e-14
3.99957e-16
6.40381e-18
9.7901e-20
1.36844e-21
3.59956e-11
8.32011e-11
1.48424e-10
5.46825e-10
2.80554e-09
1.09574e-08
2.7712e-08
3.64784e-08
2.21393e-08
1.07816e-08
7.65851e-09
1.33992e-08
4.05843e-08
1.3406e-07
3.09131e-07
3.45555e-07
2.29195e-07
2.09389e-07
4.05177e-07
1.14553e-06
2.67864e-06
4.64735e-06
3.72474e-06
2.38928e-06
1.47668e-06
1.10303e-06
1.53918e-06
3.02729e-06
8.71557e-06
2.60991e-05
5.24631e-05
5.30422e-05
4.19349e-05
3.43698e-05
2.88276e-05
1.7417e-05
1.10755e-05
7.68843e-06
5.04439e-06
2.59769e-06
1.78199e-06
2.19534e-06
3.85981e-06
7.65435e-06
1.438e-05
2.40751e-05
3.48837e-05
4.42413e-05
5.23815e-05
6.04617e-05
6.94256e-05
7.83716e-05
8.70997e-05
0.000100043
0.000122519
0.000157289
0.000194647
0.000193976
0.000162814
8.25968e-05
3.31099e-05
3.25525e-05
4.37442e-05
7.1036e-05
0.000112843
0.000165891
0.000228348
0.000296985
0.000330221
0.000324574
0.000309694
0.00030607
0.000274953
0.000159939
6.79336e-05
2.5712e-05
1.33928e-05
1.37457e-05
1.69044e-05
2.37057e-05
3.35349e-05
4.58749e-05
5.77668e-05
6.72342e-05
7.86755e-05
9.85539e-05
0.000101025
8.41562e-05
5.76825e-05
3.99465e-05
2.2222e-06
5.76764e-08
1.52431e-09
3.54221e-11
7.51245e-13
1.47223e-14
2.68554e-16
4.58866e-18
7.39254e-20
1.07331e-21
7.25618e-09
2.20834e-08
1.73313e-08
2.4036e-08
8.26411e-08
3.17329e-07
9.23908e-07
1.56402e-06
1.2266e-06
6.42069e-07
4.45666e-07
6.22652e-07
1.50915e-06
3.97006e-06
9.62936e-06
1.49274e-05
1.04953e-05
7.28444e-06
7.00007e-06
1.09936e-05
2.01581e-05
5.01771e-05
6.83575e-05
4.66655e-05
2.70439e-05
1.58786e-05
8.92467e-06
1.10726e-05
2.39904e-05
5.75166e-05
0.00012089
0.00020774
0.000254269
0.000288331
0.000290455
0.000232459
0.000115001
4.64831e-05
2.34785e-05
9.13909e-06
3.9856e-06
4.27771e-06
6.28786e-06
1.14648e-05
2.13031e-05
3.63366e-05
5.39189e-05
6.83269e-05
7.88704e-05
8.85768e-05
0.000100202
0.000113507
0.000127814
0.000147576
0.000178639
0.000220436
0.000263547
0.000268635
0.000247378
0.000157466
6.04915e-05
4.82189e-05
5.8024e-05
8.7731e-05
0.000136413
0.000198406
0.000270677
0.000356959
0.000430371
0.000458307
0.000486059
0.000554974
0.000596281
0.000527591
0.000276561
6.87845e-05
2.06515e-05
1.79998e-05
2.05122e-05
2.75058e-05
3.8606e-05
5.33949e-05
6.7983e-05
7.94812e-05
9.33491e-05
0.000116962
0.00011882
9.77894e-05
6.5939e-05
3.35977e-05
1.18696e-06
3.41137e-08
9.51456e-10
2.36511e-11
5.30814e-13
1.0876e-14
2.04726e-16
3.56391e-18
5.78368e-20
8.38667e-22
3.31862e-07
2.37205e-06
2.25295e-06
1.93024e-06
2.54365e-06
5.45198e-06
1.75461e-05
4.29256e-05
5.16355e-05
2.86348e-05
1.76209e-05
1.55815e-05
2.20054e-05
4.25398e-05
0.000101412
0.000240343
0.000267282
0.000203146
9.79801e-05
6.79425e-05
8.38562e-05
0.000152489
0.000285703
0.000307045
0.000238738
9.97851e-05
2.83995e-05
2.70038e-05
4.14089e-05
8.18964e-05
0.000158485
0.000280024
0.000405172
0.000475554
0.000489502
0.000475394
0.000429124
0.000314508
0.000116906
2.54068e-05
8.18081e-06
8.06486e-06
1.049e-05
1.76811e-05
3.23092e-05
5.62419e-05
8.57834e-05
0.000107937
0.000120628
0.000130457
0.000142473
0.000157286
0.000175434
0.000202685
0.000239509
0.000273539
0.000299607
0.000300539
0.000284843
0.000225002
0.000104641
6.99862e-05
7.81646e-05
0.000109315
0.000164019
0.000235325
0.000319899
0.00042144
0.000529057
0.000609546
0.000666029
0.000705892
0.000733614
0.000733148
0.000611189
0.000220626
4.16223e-05
2.40015e-05
2.55039e-05
3.21466e-05
4.44918e-05
6.22803e-05
8.0196e-05
9.39775e-05
0.000110502
0.000137894
0.000138693
0.000112001
7.33611e-05
2.85785e-05
8.33334e-07
2.58849e-08
7.30066e-10
1.832e-11
4.09821e-13
8.31782e-15
1.54404e-16
2.64105e-18
4.19992e-20
5.96245e-22
5.16642e-05
0.000246674
0.000294176
0.000233057
0.000205404
0.000244674
0.000358146
0.000458921
0.000458553
0.000409033
0.000230613
9.28422e-05
9.78598e-05
0.000168059
0.000336579
0.000494202
0.000524426
0.000483676
0.000349426
0.000231379
0.000246038
0.000321352
0.000385725
0.000396189
0.000370436
0.000268046
9.81519e-05
5.73176e-05
6.78704e-05
0.000109838
0.000200926
0.000344351
0.000472651
0.000513147
0.00050969
0.000497335
0.000473702
0.000433374
0.00029769
9.0751e-05
2.04212e-05
1.52143e-05
1.78005e-05
2.76074e-05
5.02151e-05
9.08098e-05
0.000142236
0.000172621
0.000179992
0.000183225
0.000189259
0.000201528
0.000225081
0.000260229
0.000282438
0.000291851
0.00030194
0.000304731
0.000295136
0.00025709
0.000146766
9.78989e-05
0.000104535
0.000137246
0.000198681
0.000281917
0.00038084
0.000487158
0.000588584
0.000677086
0.00073321
0.000743091
0.000736809
0.000722778
0.00067844
0.000425053
9.5298e-05
3.3608e-05
3.23902e-05
3.80147e-05
5.15199e-05
7.29005e-05
9.49849e-05
0.000111343
0.000130646
0.000161295
0.000160601
0.000126239
8.16376e-05
2.57997e-05
6.90537e-07
2.23636e-08
6.139e-10
1.48417e-11
3.20043e-13
6.28943e-15
1.13328e-16
1.885e-18
2.91958e-20
4.04756e-22
1.34017e-05
4.99745e-05
0.000140606
0.000252422
0.000266902
0.000266269
0.000244976
0.000192091
0.000237519
0.000363812
0.000345166
0.000280083
0.000282129
0.000340303
0.000368101
0.000353339
0.000388061
0.000469267
0.00046377
0.000448568
0.000447129
0.000436442
0.000397444
0.000385153
0.000370213
0.000323801
0.00017745
9.84266e-05
0.000105263
0.000151766
0.000263301
0.000413331
0.000509897
0.000521071
0.000511632
0.000478554
0.000418929
0.000388535
0.000343978
0.00018903
4.93037e-05
2.77468e-05
3.04768e-05
4.4516e-05
8.11058e-05
0.000150291
0.000226953
0.000244384
0.000239783
0.000231624
0.00023306
0.000248643
0.000289139
0.000305493
0.000290857
0.000259207
0.000257228
0.000270715
0.000275345
0.000251342
0.00017078
0.00012909
0.000136295
0.0001731
0.0002434
0.000338914
0.00044535
0.000543223
0.00062129
0.00068951
0.000722757
0.000718646
0.000697294
0.000665681
0.000625322
0.000505362
0.000162272
4.68278e-05
4.0754e-05
4.56862e-05
6.03143e-05
8.58796e-05
0.000112887
0.000131979
0.000154133
0.000187052
0.000184011
0.000140164
9.18137e-05
2.20622e-05
5.9917e-07
1.90135e-08
5.00029e-10
1.16455e-11
2.43903e-13
4.67827e-15
8.23664e-17
1.33984e-18
2.03206e-20
2.76566e-22
1.67939e-06
9.79673e-06
3.66362e-05
9.66343e-05
0.000132129
0.000116202
7.21801e-05
7.15366e-05
0.000129495
0.000290464
0.000383914
0.000371653
0.000353719
0.000329855
0.000259002
0.000211282
0.000271321
0.000427159
0.000464436
0.000445937
0.000412179
0.000356616
0.000364258
0.000375347
0.000371032
0.000334072
0.000208135
0.000138437
0.000150559
0.000214896
0.000340993
0.000469316
0.000520766
0.000519888
0.000504848
0.000450685
0.000344493
0.000307278
0.000294174
0.000229422
9.31595e-05
4.83947e-05
5.13029e-05
7.24746e-05
0.000130766
0.000235683
0.000312367
0.000311191
0.000289805
0.000273491
0.000281315
0.000320661
0.000348176
0.000327414
0.000253014
0.000210548
0.000213845
0.000234205
0.000250704
0.000236272
0.000182062
0.000159599
0.000170824
0.000215769
0.000296893
0.000401894
0.000506485
0.00058845
0.000640222
0.000673485
0.000679391
0.000671816
0.000652263
0.000626357
0.000589294
0.000498666
0.000204073
6.02518e-05
5.05637e-05
5.5303e-05
7.139e-05
0.000101795
0.000134483
0.000156336
0.0001812
0.000214723
0.000208132
0.000153366
0.000104581
2.02988e-05
5.40289e-07
1.62437e-08
4.11242e-10
9.36951e-12
1.93304e-13
3.65469e-15
6.33559e-17
1.01432e-18
1.51396e-20
2.0304e-22
1.87935e-07
1.36026e-06
5.64811e-06
1.33208e-05
1.99494e-05
1.83333e-05
1.71675e-05
2.39955e-05
5.33198e-05
0.000142958
0.000259696
0.000308549
0.000291191
0.000208494
0.000105937
9.99163e-05
0.000143317
0.000253252
0.000322012
0.00030888
0.000266929
0.000291961
0.000367941
0.000350603
0.000292007
0.000241624
0.000185396
0.000176929
0.000209373
0.000296532
0.000410712
0.000484408
0.000516759
0.000522736
0.000504375
0.000432534
0.000295155
0.000253321
0.000251765
0.000223753
0.000128509
7.73365e-05
8.25282e-05
0.000118941
0.000215936
0.000358929
0.000404991
0.000382312
0.000339598
0.00033548
0.000361966
0.000408121
0.000407894
0.000341093
0.000228363
0.000190524
0.000193488
0.000212884
0.000228807
0.000219127
0.000189134
0.00018677
0.000207058
0.000265225
0.000358134
0.000467632
0.000567779
0.00062594
0.000632578
0.000632426
0.000632049
0.000629653
0.000624228
0.000611358
0.000578778
0.000492625
0.00022731
7.36084e-05
6.17219e-05
6.66588e-05
8.47982e-05
0.00012094
0.00016032
0.000184951
0.000212192
0.000243901
0.000232007
0.000165382
0.000124348
2.01448e-05
5.00779e-07
1.41435e-08
3.51001e-10
7.96018e-12
1.6288e-13
3.02982e-15
5.1423e-17
8.0443e-19
1.17255e-20
1.53812e-22
2.28515e-08
1.73348e-07
6.59643e-07
1.52907e-06
2.43969e-06
3.18279e-06
4.4446e-06
7.58076e-06
1.62797e-05
3.99926e-05
8.82657e-05
0.000131732
0.000117583
6.22519e-05
4.21768e-05
4.95329e-05
7.14259e-05
0.000110411
0.000144272
0.000152446
0.000169342
0.000253585
0.000380995
0.000378358
0.000288742
0.000227421
0.000213843
0.000234203
0.000294841
0.000387734
0.000454187
0.000473171
0.000500357
0.00053277
0.000517321
0.000430159
0.000269907
0.000223504
0.000223667
0.000206741
0.000140854
0.000110039
0.000125486
0.000194065
0.000346843
0.000495242
0.000507244
0.000464297
0.000425407
0.00042882
0.000459129
0.000487691
0.00048253
0.000398748
0.000250402
0.000186268
0.000183474
0.00019281
0.000204211
0.000200787
0.000197818
0.000209092
0.000248528
0.000325339
0.000430527
0.000539609
0.000609647
0.000614692
0.000599433
0.000588885
0.000591856
0.000604995
0.000614528
0.000608743
0.000578139
0.000485018
0.000230867
8.45139e-05
7.32386e-05
7.90093e-05
0.000100332
0.000143616
0.000191079
0.000218516
0.000247484
0.000274083
0.000254766
0.000176901
0.00014798
1.78088e-05
4.2137e-07
1.17862e-08
2.95815e-10
6.6729e-12
1.33624e-13
2.41344e-15
3.97158e-17
6.03065e-19
8.54841e-21
1.09385e-22
4.81141e-09
2.77709e-08
1.04727e-07
2.65552e-07
5.12979e-07
8.91496e-07
1.53899e-06
2.75588e-06
4.98787e-06
9.05341e-06
1.59711e-05
2.32776e-05
2.25172e-05
2.048e-05
2.49454e-05
3.54298e-05
4.81335e-05
6.27053e-05
7.84694e-05
9.45599e-05
0.000130142
0.000220026
0.000366349
0.000413966
0.000364121
0.000298159
0.000296674
0.000328938
0.000395698
0.000441654
0.000438283
0.000439721
0.000473806
0.000534653
0.000535593
0.000447156
0.000262284
0.000200201
0.000198004
0.000183603
0.000145597
0.000145163
0.000186955
0.000307277
0.000495825
0.000598541
0.000594303
0.000557243
0.000526678
0.000524769
0.000537925
0.000559433
0.000562463
0.000521833
0.000379189
0.000218939
0.000180984
0.000181064
0.000186791
0.000195905
0.000210569
0.000242394
0.00030264
0.000397751
0.000509718
0.000593467
0.000605887
0.000586879
0.000561304
0.00056167
0.000570507
0.000597476
0.000627594
0.000624931
0.000584795
0.000460561
0.000214364
9.11649e-05
8.38788e-05
9.16156e-05
0.00011799
0.000170227
0.000227532
0.000258228
0.000287381
0.000304256
0.000276727
0.00018752
0.000168202
1.32945e-05
3.20304e-07
9.16544e-09
2.31278e-10
5.09755e-12
9.86996e-14
1.72271e-15
2.74831e-17
4.05906e-19
5.61132e-21
7.02221e-23
1.72406e-08
1.15259e-07
3.67553e-07
8.10982e-07
1.42031e-06
2.1809e-06
3.10767e-06
3.93622e-06
4.68725e-06
5.84819e-06
8.2457e-06
1.25066e-05
1.8231e-05
2.5913e-05
3.55394e-05
4.33378e-05
4.85957e-05
5.47053e-05
6.36404e-05
7.93893e-05
0.00011433
0.000188661
0.000300526
0.000394376
0.000414031
0.000407384
0.000412647
0.000427632
0.000432087
0.000410717
0.000387449
0.000398247
0.000443567
0.000520003
0.00055386
0.000493331
0.000287078
0.000186337
0.000173568
0.000165816
0.000163826
0.000191644
0.000284203
0.000449615
0.00059736
0.00062527
0.00061677
0.00059288
0.000580969
0.000580518
0.000583149
0.000587067
0.000590745
0.000586625
0.000520745
0.000344317
0.000221102
0.000198774
0.000199499
0.000208886
0.000237888
0.000292097
0.000374458
0.000483324
0.000581474
0.000601606
0.000582665
0.000550388
0.000546772
0.000553206
0.000575151
0.000621293
0.000659456
0.000650396
0.000583311
0.000399285
0.000177984
9.47474e-05
9.29766e-05
0.000104447
0.00013796
0.000200382
0.000268319
0.000303755
0.000329217
0.000333194
0.000295405
0.000201438
0.000163339
8.04075e-06
2.27753e-07
6.752e-09
1.66264e-10
3.5136e-12
6.54166e-14
1.10461e-15
1.71379e-17
2.46945e-19
3.33627e-21
4.08639e-23
1.16837e-07
6.73109e-07
1.9882e-06
4.1142e-06
6.81955e-06
9.57446e-06
1.23553e-05
1.37708e-05
1.43402e-05
1.53703e-05
1.88448e-05
2.63681e-05
3.91099e-05
5.38307e-05
6.03717e-05
6.04763e-05
5.94493e-05
6.01076e-05
6.41402e-05
7.6999e-05
0.000109088
0.000164948
0.000239845
0.000313964
0.000385545
0.000409236
0.000410753
0.000401275
0.00036293
0.000330665
0.000333485
0.000359634
0.000405268
0.000475241
0.000558566
0.000541264
0.000380321
0.000210779
0.000183051
0.000182285
0.000204169
0.000277991
0.000418499
0.000566597
0.00061601
0.000613023
0.000596589
0.000581777
0.000577687
0.000576269
0.000578278
0.00058171
0.00059095
0.000603702
0.000593779
0.000506313
0.000345966
0.000258167
0.000240724
0.000251649
0.000294969
0.000369436
0.000467558
0.000572828
0.000601425
0.000578192
0.000541335
0.000538787
0.000550514
0.00058231
0.000628411
0.000680582
0.000698665
0.000674358
0.000576948
0.000320217
0.000137478
9.78065e-05
0.000100528
0.000118206
0.00016103
0.000235107
0.000312413
0.000351775
0.000365274
0.000358273
0.000304728
0.000223668
0.000111128
4.65301e-06
1.58215e-07
4.61259e-09
1.08e-10
2.179e-12
3.91451e-14
6.41975e-16
9.7059e-18
1.36449e-19
1.79896e-21
2.15155e-23
7.10044e-07
3.61099e-06
1.02117e-05
2.00476e-05
2.89832e-05
3.45118e-05
3.78841e-05
3.8814e-05
3.96794e-05
4.31273e-05
5.13604e-05
6.58372e-05
7.72178e-05
7.86963e-05
7.71442e-05
7.42222e-05
7.06417e-05
7.0462e-05
7.33338e-05
8.48207e-05
0.000110329
0.000142064
0.00017294
0.000204604
0.000257357
0.000295123
0.000296763
0.000282085
0.000267951
0.000273041
0.000293035
0.000322099
0.000360634
0.000418737
0.000526152
0.000573637
0.000503613
0.000313583
0.000237683
0.000242332
0.000299084
0.000415629
0.000548486
0.000601854
0.000596637
0.000567619
0.000547666
0.000547196
0.000548934
0.000551598
0.00055512
0.000564962
0.000584275
0.000607397
0.000616188
0.000598117
0.000521258
0.000410902
0.000346531
0.000348197
0.000391642
0.000475124
0.000571657
0.000607077
0.000577996
0.000532572
0.000529841
0.000542917
0.000585807
0.000644127
0.000698544
0.000729646
0.000728089
0.00069453
0.00057422
0.000268182
0.000117098
0.000101521
0.000108469
0.000133423
0.000187876
0.00027384
0.000352552
0.000388634
0.00038971
0.000373748
0.000303191
0.000265595
8.44914e-05
3.05822e-06
1.05714e-07
2.86711e-09
6.33181e-11
1.22332e-12
2.12716e-14
3.38915e-16
4.98289e-18
6.81207e-20
8.73171e-22
1.01605e-23
3.81756e-06
1.63982e-05
3.80137e-05
5.31512e-05
6.05522e-05
6.4989e-05
7.0815e-05
7.52306e-05
7.91229e-05
8.73732e-05
9.28676e-05
9.33709e-05
9.06222e-05
8.53384e-05
8.12579e-05
7.91994e-05
7.91879e-05
8.02783e-05
8.40658e-05
9.43281e-05
0.000109176
0.000115548
0.000124376
0.000140934
0.000160892
0.000181568
0.000198071
0.000210114
0.000221787
0.000237217
0.000258121
0.00028503
0.000319402
0.00036737
0.000451864
0.000565996
0.000574317
0.000490012
0.000393019
0.000388978
0.00045275
0.000548349
0.000588086
0.000581222
0.000533142
0.000497457
0.000492174
0.000497692
0.000506436
0.000517796
0.000534046
0.000558942
0.000594147
0.000620202
0.000627064
0.000621189
0.000602913
0.000572824
0.000511383
0.000497429
0.000531982
0.000600782
0.000621305
0.000580557
0.000522983
0.000519386
0.000532129
0.000574476
0.000640376
0.000696496
0.000735854
0.00074984
0.000742814
0.000706317
0.000579929
0.00025142
0.000113683
0.000106598
0.000117507
0.000150577
0.000217449
0.000315306
0.000383141
0.000401194
0.000397851
0.000378655
0.000303843
0.000375415
6.65748e-05
2.07706e-06
6.36036e-08
1.5729e-09
3.30551e-11
6.17643e-13
1.04242e-14
1.6106e-16
2.29507e-18
3.04099e-20
3.77882e-22
4.26772e-24
6.4188e-06
2.35473e-05
4.38178e-05
5.50999e-05
6.32956e-05
7.22663e-05
8.31932e-05
9.24578e-05
9.42135e-05
9.08174e-05
8.3841e-05
7.5976e-05
7.28321e-05
7.30574e-05
7.47883e-05
7.728e-05
8.01795e-05
8.36075e-05
8.72693e-05
8.8193e-05
8.96724e-05
9.61203e-05
0.000107384
0.000123223
0.000140692
0.000156352
0.000168988
0.000180612
0.000193057
0.000209448
0.000231613
0.000258619
0.000289586
0.000328141
0.000386095
0.000475722
0.000572146
0.000583043
0.000562227
0.000554915
0.000569526
0.000576908
0.000560084
0.000500709
0.000451377
0.000443868
0.000449147
0.00046338
0.000482226
0.000504641
0.00053711
0.000587086
0.000633178
0.000642795
0.000634376
0.000624561
0.000617119
0.000621538
0.000633222
0.000648153
0.00065807
0.000639746
0.000569451
0.000507159
0.000507296
0.000525906
0.000569351
0.000632612
0.000690622
0.000723507
0.000746455
0.00075783
0.000753805
0.000719231
0.000599658
0.000264662
0.000118272
0.000113612
0.000128977
0.000170724
0.000248939
0.000362581
0.000412365
0.000410256
0.000402532
0.000378352
0.000319077
0.000534563
4.44595e-05
1.16264e-06
3.09864e-08
7.24287e-10
1.48073e-11
2.69084e-13
4.39395e-15
6.55202e-17
9.01418e-19
1.15455e-20
1.38828e-22
1.51925e-24
9.34058e-07
4.69771e-06
9.80881e-06
1.40847e-05
1.97472e-05
2.69367e-05
3.20332e-05
3.50436e-05
3.53142e-05
3.52423e-05
3.53335e-05
3.6389e-05
3.77587e-05
4.01161e-05
4.40226e-05
4.88689e-05
5.38096e-05
5.75051e-05
6.12949e-05
6.48615e-05
7.67057e-05
9.38495e-05
0.000109992
0.000122024
0.000130213
0.000138271
0.000146516
0.000156614
0.000170977
0.000192057
0.000218487
0.000246228
0.000273578
0.000302089
0.000338545
0.000387969
0.000456389
0.000530542
0.000558681
0.000555466
0.000549294
0.000515682
0.000452935
0.000414244
0.000407628
0.000413873
0.000431267
0.000455838
0.000484729
0.000522678
0.000583831
0.000648093
0.000667716
0.000657832
0.00063511
0.000605315
0.000596111
0.00059544
0.000605799
0.000606819
0.000568988
0.00050271
0.000482361
0.000490039
0.000520513
0.000579176
0.000636842
0.000686721
0.000718658
0.000736624
0.000752852
0.000768015
0.000767056
0.000737284
0.000630204
0.000298215
0.00012894
0.00012386
0.000143688
0.000194708
0.000280191
0.000414382
0.000464909
0.000438974
0.00041173
0.000388038
0.000380224
0.000351048
1.63352e-05
4.54558e-07
1.21963e-08
2.8355e-10
5.64785e-12
9.89831e-14
1.55492e-15
2.23363e-17
2.96751e-19
3.67708e-21
4.28223e-23
4.54349e-25
5.82352e-08
4.40562e-07
1.02209e-06
1.7662e-06
2.7267e-06
3.70548e-06
4.56345e-06
5.3441e-06
6.1317e-06
7.64724e-06
9.73635e-06
1.18864e-05
1.6021e-05
2.25315e-05
3.04463e-05
3.70822e-05
4.16598e-05
4.64912e-05
5.55154e-05
7.43949e-05
9.64263e-05
9.50041e-05
9.00334e-05
9.05068e-05
9.55486e-05
0.00010489
0.000117194
0.000133892
0.000157077
0.000186361
0.000216785
0.00024504
0.000270603
0.00029333
0.000314292
0.000337779
0.000364763
0.000400188
0.000437471
0.000449822
0.000433814
0.00040092
0.00038225
0.00038157
0.000390951
0.000411015
0.000438285
0.000472905
0.000521354
0.000588192
0.000663944
0.000690277
0.000682769
0.000653147
0.000584844
0.00051682
0.000479786
0.000462777
0.000451854
0.000443844
0.000446548
0.000453991
0.000477996
0.000526626
0.000591719
0.000651026
0.000688533
0.000712106
0.0007298
0.000745654
0.000764457
0.000785032
0.000785382
0.000759104
0.000662383
0.000340327
0.000145391
0.000138445
0.000162137
0.000222186
0.000321485
0.000484077
0.000588163
0.000519269
0.000442474
0.000438728
0.000674734
0.000119424
4.76511e-06
1.58301e-07
4.20544e-09
9.38257e-11
1.78666e-12
3.006e-14
4.55082e-16
6.31842e-18
8.12895e-20
9.76562e-22
1.1036e-23
1.13743e-25
3.63868e-09
3.02569e-08
7.6627e-08
1.37009e-07
2.08166e-07
3.04122e-07
5.32152e-07
1.04858e-06
2.14888e-06
5.64316e-06
1.47857e-05
2.9742e-05
4.93139e-05
7.07667e-05
8.4988e-05
8.26862e-05
7.21331e-05
6.88508e-05
7.95213e-05
9.64229e-05
8.67461e-05
5.90845e-05
4.77421e-05
4.94057e-05
5.64749e-05
7.00343e-05
9.0349e-05
0.000118056
0.000151731
0.000187338
0.000222185
0.00025311
0.000276998
0.000294391
0.000308883
0.000321392
0.000333499
0.000345355
0.000355424
0.000361163
0.00036062
0.000359552
0.000364514
0.000378193
0.000399406
0.000429664
0.000473557
0.00052982
0.000605053
0.000684474
0.00071122
0.000702458
0.000664581
0.000564192
0.00045597
0.000399361
0.000381692
0.000390257
0.000400265
0.000417216
0.000450027
0.000498585
0.000553392
0.000609477
0.000656678
0.000686359
0.000704671
0.000719055
0.000734087
0.000752555
0.000777221
0.000801816
0.000800734
0.000777412
0.000692095
0.000392544
0.000169373
0.000158252
0.000184434
0.000252114
0.000387366
0.000577509
0.000828304
0.000719291
0.000551076
0.000603557
0.000660392
4.15926e-05
1.45715e-06
4.64656e-08
1.17829e-09
2.51998e-11
4.61964e-13
7.51335e-15
1.10178e-16
1.4834e-18
1.85209e-20
2.16132e-22
2.37529e-24
2.38314e-26
2.07328e-10
1.91052e-09
4.8149e-09
7.98514e-09
1.34351e-08
6.51399e-08
4.12497e-07
1.69812e-06
5.95304e-06
1.84485e-05
4.39706e-05
7.77275e-05
0.000111971
0.00014428
0.000150983
0.000142717
0.000117531
0.000105659
0.000107463
9.14484e-05
5.15894e-05
3.23057e-05
3.14182e-05
3.34482e-05
3.89094e-05
5.38624e-05
7.97626e-05
0.000114585
0.000155837
0.000198885
0.000236628
0.000263968
0.000282183
0.000296441
0.000307548
0.000315918
0.000323049
0.000329168
0.000334297
0.000338348
0.000344087
0.000355002
0.000371179
0.000397001
0.000436569
0.000484548
0.000547239
0.000622536
0.000704794