/*--------------------------------*- C++ -*----------------------------------*\
| =========                 |                                                 |
| \\      /  F ield         | OpenFOAM: The Open Source CFD Toolbox           |
|  \\    /   O peration     | Version:  2.3.0                                 |
|   \\  /    A nd           | Web:      www.OpenFOAM.org                      |
|    \\/     M anipulation  |                                                 |
\*---------------------------------------------------------------------------*/
FoamFile
{
    version     2.0;
    format      ascii;
    class       volScalarField;
    location    "0.05";
    object      CH4;
}
// * * * * * * * * * * * * * * * * * * * * * * * * * * * * * * * * * * * * * //

dimensions      [0 0 0 0 0 0 0];

internalField   nonuniform List<scalar> 
5000
(
0.156
0.156
0.156
0.156
0.156
0.156
0.156
0.156
0.156
0.156
0.156
0.156
0.156
0.156
0.156
0.156
0.156
0.156
0.156
0.156
0.156
0.156
0.156
0.156
0.156
0.156
0.156
0.156
0.156
0.156
0.156
0.156
0.156
0.156
0.156
0.156
0.156
0.156
0.156
0.156
0.156
0.156
0.155999
0.155998
0.155997
0.155996
0.155995
0.155995
0.155996
0.155997
0.155998
0.155999
0.155999
0.156
0.156
0.156
0.156
0.156
0.156
0.156
0.156
0.156
0.156
0.156
0.156
0.156
0.156
0.155999
0.155999
0.155999
0.155998
0.155998
0.155996
0.155989
0.155966
0.155896
0.155746
0.155491
0.155109
0.154579
0.15388
0.152942
0.151727
0.150233
0.148357
0.146108
0.143307
0.140191
0.137425
0.135
0.13188
0.126053
0.122367
0.122633
0.118466
0.0836423
0.00155056
3.62196e-23
5.86201e-26
1.50258e-27
0.156
0.156
0.156
0.156
0.156
0.156
0.156
0.156
0.156
0.156
0.156
0.156
0.156
0.156
0.156
0.156
0.156
0.156
0.156
0.156
0.156
0.156
0.156
0.156
0.156
0.156
0.156
0.156
0.156
0.156
0.156
0.156
0.156
0.156
0.156
0.156
0.156
0.156
0.156
0.156
0.155999
0.155997
0.155991
0.15598
0.155962
0.155938
0.15592
0.155923
0.155942
0.155962
0.155976
0.155985
0.155991
0.155994
0.155997
0.155998
0.155999
0.156
0.156
0.156
0.156
0.156
0.156
0.156
0.155999
0.155998
0.155996
0.155992
0.155986
0.155983
0.155985
0.155987
0.155984
0.155973
0.155941
0.155827
0.155548
0.155054
0.154284
0.153205
0.151809
0.150219
0.148339
0.146148
0.143343
0.139889
0.136321
0.132559
0.128444
0.124307
0.119086
0.10915
0.101712
0.105428
0.106521
0.0734927
0.000327616
2.60513e-23
5.68802e-26
1.4943e-27
0.156
0.156
0.156
0.156
0.156
0.156
0.156
0.156
0.156
0.156
0.156
0.156
0.156
0.156
0.156
0.156
0.156
0.156
0.156
0.156
0.156
0.156
0.156
0.156
0.156
0.156
0.156
0.156
0.156
0.156
0.156
0.156
0.156
0.156
0.156
0.156
0.156
0.156
0.156
0.155999
0.155995
0.155985
0.155949
0.15584
0.155591
0.155194
0.154784
0.154825
0.15513
0.155441
0.15566
0.155798
0.155881
0.155931
0.15596
0.155977
0.155987
0.155992
0.155996
0.155998
0.155999
0.155999
0.155998
0.155997
0.155993
0.155983
0.155959
0.155907
0.155814
0.155744
0.155787
0.155857
0.155899
0.155911
0.155871
0.155696
0.155207
0.15429
0.152835
0.150906
0.148733
0.146355
0.143511
0.140094
0.136534
0.132542
0.127695
0.122644
0.117469
0.111167
0.102662
0.0891658
0.0784562
0.083469
0.0927919
0.0602625
1.14867e-05
5.93414e-24
5.51303e-26
1.54743e-27
0.156
0.156
0.156
0.156
0.156
0.156
0.156
0.156
0.156
0.156
0.156
0.156
0.156
0.156
0.156
0.156
0.156
0.156
0.156
0.156
0.156
0.156
0.156
0.156
0.156
0.156
0.156
0.156
0.156
0.156
0.156
0.156
0.156
0.156
0.155999
0.155999
0.155999
0.155998
0.155997
0.155994
0.155985
0.155949
0.155828
0.155437
0.154353
0.151757
0.147709
0.145316
0.146225
0.149402
0.152278
0.153932
0.15483
0.155361
0.155648
0.155794
0.155876
0.155929
0.155963
0.15598
0.155988
0.155991
0.155989
0.155985
0.155971
0.155932
0.155816
0.155473
0.154376
0.152579
0.153098
0.154209
0.154947
0.155435
0.155643
0.155464
0.154786
0.153375
0.151174
0.148553
0.145699
0.142323
0.138607
0.134806
0.13028
0.125005
0.119603
0.113392
0.106304
0.0984121
0.0866194
0.0696664
0.0593563
0.0661313
0.0800548
0.0477036
5.83806e-07
1.82513e-24
5.68291e-26
1.65907e-27
0.156
0.156
0.156
0.156
0.156
0.156
0.156
0.156
0.156
0.156
0.156
0.156
0.156
0.156
0.156
0.156
0.156
0.156
0.156
0.156
0.156
0.156
0.156
0.156
0.156
0.156
0.156
0.156
0.156
0.156
0.156
0.155999
0.155998
0.155995
0.155989
0.155982
0.155981
0.155985
0.155984
0.155977
0.155954
0.15585
0.155501
0.154441
0.15185
0.147312
0.14025
0.132289
0.126817
0.127297
0.131288
0.139163
0.146961
0.150766
0.152858
0.154177
0.155049
0.155529
0.155755
0.15586
0.155915
0.155945
0.155953
0.155942
0.155902
0.15578
0.155411
0.154246
0.150725
0.143342
0.138429
0.14084
0.147625
0.153111
0.155078
0.155028
0.154275
0.152395
0.149617
0.146354
0.14259
0.13852
0.134484
0.129656
0.124148
0.11842
0.111671
0.104403
0.096497
0.0861434
0.0708169
0.0522819
0.047681
0.056158
0.0699645
0.0377403
9.92016e-09
1.70641e-24
5.85004e-26
1.73997e-27
0.156
0.156
0.156
0.156
0.156
0.156
0.156
0.156
0.156
0.156
0.156
0.156
0.156
0.156
0.156
0.156
0.156
0.156
0.156
0.155999
0.156
0.156
0.156
0.156
0.155999
0.155999
0.155998
0.155996
0.155995
0.155995
0.155994
0.15599
0.155978
0.155949
0.155885
0.155783
0.155775
0.155831
0.155872
0.155889
0.155856
0.155679
0.155042
0.15321
0.149502
0.143772
0.135713
0.125541
0.114437
0.104876
0.103522
0.105454
0.11048
0.119926
0.132608
0.143977
0.149917
0.152659
0.154103
0.154934
0.155415
0.155678
0.155811
0.155799
0.155697
0.15535
0.154401
0.151932
0.146766
0.136874
0.122541
0.119013
0.126068
0.143641
0.153424
0.154261
0.153608
0.151423
0.148089
0.144086
0.139526
0.135189
0.130286
0.124565
0.118605
0.111544
0.103995
0.0961654
0.0867988
0.0740888
0.0557997
0.0413464
0.0420875
0.0540597
0.0621544
0.0305918
5.94417e-11
1.62007e-24
5.72249e-26
1.66152e-27
0.156
0.156
0.156
0.156
0.156
0.156
0.156
0.156
0.156
0.155999
0.155998
0.155997
0.155997
0.155996
0.155996
0.155995
0.155992
0.155988
0.15598
0.155977
0.155981
0.155986
0.155989
0.15599
0.155987
0.155977
0.155958
0.155934
0.15592
0.155925
0.155928
0.155911
0.155858
0.155741
0.15541
0.154124
0.1536
0.154219
0.154791
0.155203
0.155483
0.155345
0.154444
0.151857
0.147313
0.14027
0.131429
0.119786
0.105612
0.0917817
0.0836201
0.0833518
0.0854799
0.09168
0.101337
0.111197
0.120556
0.130348
0.140924
0.148424
0.151983
0.15437
0.15537
0.155374
0.155119
0.154318
0.152423
0.148782
0.142142
0.131163
0.113614
0.0964581
0.0996047
0.121794
0.147214
0.152833
0.152442
0.15031
0.146563
0.141664
0.136685
0.131735
0.125899
0.119791
0.112613
0.104661
0.0965877
0.087712
0.0770368
0.0621417
0.043136
0.0374312
0.0418253
0.0584782
0.0571847
0.0260237
1.27931e-13
1.48485e-24
5.1177e-26
1.41404e-27
0.156
0.155999
0.155997
0.155995
0.155993
0.155992
0.155991
0.155989
0.155984
0.155973
0.155954
0.15593
0.155913
0.155907
0.155901
0.155885
0.155842
0.155751
0.155608
0.15547
0.155514
0.155653
0.155757
0.155819
0.155823
0.155745
0.155584
0.155288
0.154975
0.15503
0.155186
0.155271
0.155205
0.154924
0.153989
0.14992
0.1429
0.142785
0.146118
0.150615
0.154058
0.154493
0.153564
0.150404
0.144973
0.136816
0.126229
0.112741
0.0965585
0.080248
0.0707618
0.0702297
0.0721607
0.0772004
0.0830419
0.0862028
0.0886553
0.0920847
0.098207
0.110065
0.133873
0.149847
0.154041
0.154155
0.153666
0.15213
0.149293
0.144529
0.136339
0.12291
0.102584
0.0774898
0.0747251
0.0935475
0.13311
0.14996
0.150622
0.148881
0.144838
0.139184
0.133825
0.127901
0.121655
0.114599
0.106239
0.097819
0.0886649
0.0788793
0.0670773
0.0502585
0.0360507
0.0379494
0.0517284
0.0653997
0.0540922
0.0210388
3.52881e-16
1.31711e-24
4.24876e-26
1.09561e-27
0.155971
0.155909
0.15581
0.155709
0.155668
0.155671
0.155669
0.155626
0.155495
0.155222
0.154748
0.154153
0.153788
0.153839
0.153947
0.153949
0.153642
0.152685
0.15072
0.147475
0.145358
0.148077
0.150832
0.152812
0.154071
0.154366
0.153841
0.151512
0.146662
0.145084
0.146801
0.14889
0.150623
0.151334
0.149867
0.143754
0.130024
0.118153
0.121359
0.134396
0.148708
0.15281
0.152003
0.148694
0.142271
0.133185
0.12069
0.104407
0.0859925
0.068803
0.0613384
0.0614736
0.0640888
0.0661725
0.0665985
0.0647368
0.0622084
0.0624107
0.0648205
0.0727124
0.0937079
0.130515
0.149548
0.150945
0.150309
0.148342
0.144671
0.138337
0.128503
0.111417
0.0875572
0.0603555
0.052815
0.0660517
0.110193
0.143831
0.148191
0.146922
0.142763
0.136729
0.130527
0.123892
0.11713
0.10869
0.0998636
0.0902458
0.0800872
0.069584
0.0566582
0.0396064
0.0343
0.0431725
0.0685144
0.0708483
0.0503808
0.00985169
1.34894e-18
9.90052e-25
3.01824e-26
7.37478e-28
0.154746
0.152538
0.149358
0.146112
0.144316
0.144853
0.146254
0.14678
0.145548
0.142288
0.136556
0.129304
0.123387
0.123264
0.125244
0.130699
0.13477
0.133994
0.128343
0.112165
0.0946773
0.0953367
0.106869
0.126785
0.146686
0.149879
0.14844
0.1427
0.130031
0.113115
0.111078
0.115985
0.129826
0.141276
0.140879
0.134584
0.117859
0.0918556
0.0880777
0.100524
0.131068
0.149027
0.149402
0.146468
0.139118
0.128471
0.113714
0.0947085
0.0737886
0.0573151
0.0525597
0.0530737
0.053752
0.0531044
0.0500863
0.0453303
0.0411788
0.0402568
0.0409606
0.0458317
0.0643372
0.105781
0.139274
0.144976
0.144452
0.142269
0.137721
0.130326
0.117706
0.096258
0.0695554
0.0457777
0.0416843
0.0490669
0.0828914
0.130006
0.144646
0.144114
0.140174
0.134121
0.126833
0.119748
0.111697
0.102592
0.0926989
0.0818303
0.0707926
0.0596045
0.0461137
0.0323653
0.0333143
0.0533152
0.0797551
0.0739096
0.0454292
0.00117659
7.11977e-21
6.29986e-25
1.81781e-26
4.28808e-28
0.0609932
0.0740419
0.065307
0.0472339
0.0412894
0.0561594
0.0915754
0.112952
0.113009
0.107684
0.0925087
0.0700521
0.0557468
0.0570988
0.0657453
0.0866979
0.0985068
0.0985175
0.0935917
0.0701187
0.0416488
0.0387561
0.0476648
0.0763702
0.121249
0.139114
0.137714
0.129403
0.109548
0.0842055
0.0737665
0.0761266
0.0913376
0.119896
0.124481
0.117565
0.0968056
0.0672762
0.0532822
0.0630631
0.0994702
0.138644
0.145472
0.142982
0.135509
0.122803
0.104792
0.082862
0.0605798
0.0464239
0.0428488
0.0426891
0.0421341
0.0394754
0.034523
0.0292947
0.0261606
0.0256042
0.0262127
0.0308204
0.0476852
0.0888416
0.126328
0.135853
0.135675
0.133769
0.128349
0.11855
0.101805
0.0769516
0.0532151
0.0414603
0.0397199
0.0431965
0.0603549
0.110556
0.139182
0.140283
0.137284
0.130914
0.122897
0.114911
0.10568
0.0958474
0.0845751
0.0724956
0.0606584
0.0491775
0.0361199
0.0277251
0.0322261
0.063789
0.0850706
0.0736306
0.0397685
5.75662e-06
1.36075e-22
3.4872e-25
9.95132e-27
2.31897e-28
2.59661e-05
0.00174523
0.00116516
0.000570116
0.00117492
0.00932004
0.0394506
0.0638889
0.0656553
0.0589293
0.039377
0.0180038
0.010964
0.0126517
0.0230751
0.0444345
0.0573063
0.0571078
0.0480945
0.0247039
0.0102127
0.0104694
0.0189657
0.0498799
0.104531
0.12489
0.122769
0.109647
0.084983
0.0578737
0.0419501
0.0438608
0.0642982
0.0982222
0.101768
0.092324
0.069786
0.0364706
0.0280321
0.0332756
0.0651137
0.120996
0.139383
0.137905
0.130499
0.115749
0.0942567
0.0691988
0.0474239
0.0360927
0.0330498
0.0320876
0.0302355
0.0260064
0.0207525
0.017128
0.0157201
0.01564
0.0169356
0.0221658
0.0379844
0.0762453
0.111845
0.123591
0.123822
0.121733
0.11478
0.101018
0.0806396
0.0531647
0.0459369
0.0510779
0.0507983
0.0486485
0.0567117
0.0942814
0.132988
0.136525
0.133957
0.126917
0.118477
0.109002
0.0992379
0.0880319
0.0754067
0.0622114
0.0499204
0.039098
0.0275378
0.023936
0.030581
0.0717809
0.0857584
0.0697032
0.0364496
2.11995e-10
5.824e-24
1.82974e-25
5.12221e-27
1.19121e-28
8.5854e-08
6.93037e-07
1.43135e-06
2.77421e-06
1.18292e-05
0.00016748
0.00363914
0.011596
0.0135845
0.00997091
0.00344475
0.000730724
0.000583942
0.00115305
0.00415853
0.0113543
0.0165813
0.0159593
0.00981939
0.00307003
0.00235451
0.00540433
0.0218596
0.0597618
0.0972462
0.10596
0.101345
0.0851427
0.0599317
0.0282813
0.0201763
0.0258353
0.0504846
0.0755509
0.0766491
0.0646722
0.0340469
0.019775
0.0242874
0.0290293
0.0474815
0.105571
0.132796
0.131949
0.123451
0.105709
0.0810304
0.0545104
0.0355033
0.0265338
0.0233441
0.0211947
0.0179564
0.0138096
0.0105125
0.00889869
0.00856318
0.00879489
0.0104786
0.0156664
0.029791
0.0613124
0.0929661
0.106626
0.107658
0.104969
0.0955603
0.078351
0.0534819
0.0406132
0.0514112
0.0705771
0.0699336
0.0615811
0.0642776
0.0903593
0.127807
0.132781
0.129827
0.122289
0.112751
0.102473
0.0915819
0.0789916
0.0651879
0.0511925
0.0396009
0.0298923
0.02092
0.0200968
0.0296021
0.0762919
0.0839142
0.0614202
0.0252103
3.02323e-16
2.83183e-24
8.79324e-26
2.4589e-27
5.96242e-29
1.70421e-08
4.78899e-08
9.42925e-08
2.11051e-07
7.45392e-07
4.47511e-06
2.59213e-05
9.03473e-05
0.000125956
8.44466e-05
3.41011e-05
1.87994e-05
2.18476e-05
4.41749e-05
0.000158711
0.000513169
0.000786663
0.000688284
0.000328468
0.000202163
0.000431781
0.00305026
0.0192203
0.0557328
0.0789859
0.0814713
0.0767847
0.0580245
0.0266696
0.00891128
0.00784208
0.0134471
0.0343988
0.0457389
0.042914
0.0263082
0.0154938
0.022237
0.0537824
0.0566388
0.0622725
0.101538
0.125825
0.124556
0.114359
0.0931751
0.0655941
0.0406824
0.0246506
0.0170246
0.0135354
0.0108721
0.008188
0.00592314
0.00455377
0.00401719
0.00399812
0.00437806
0.00584194
0.00987772
0.0212157
0.045361
0.0708619
0.0853247
0.0871687
0.0836846
0.0723164
0.0517387
0.0336365
0.0361907
0.0721256
0.0913434
0.0888888
0.0771588
0.0752298
0.0953588
0.125282
0.128728
0.125029
0.116702
0.105636
0.0947218
0.082458
0.0686976
0.0539934
0.0404269
0.0302176
0.0219883
0.0157454
0.0164824
0.0290519
0.0787732
0.0803118
0.0502205
0.00217626
2.14374e-20
1.26006e-24
3.94241e-26
1.1849e-27
3.12753e-29
6.9831e-09
1.63359e-08
2.86392e-08
5.10188e-08
1.23208e-07
3.36891e-07
8.78315e-07
1.76109e-06
2.16219e-06
1.96212e-06
1.38508e-06
1.24855e-06
1.65544e-06
3.14031e-06
7.01754e-06
1.261e-05
1.66758e-05
1.69158e-05
1.58274e-05
2.00184e-05
5.79437e-05
0.000743609
0.00798858
0.0322562
0.0497176
0.0516243
0.0432999
0.0232697
0.00554044
0.00171193
0.00181835
0.00394828
0.0104299
0.0136358
0.011479
0.0075096
0.00936493
0.0350343
0.078836
0.0863157
0.0883357
0.107775
0.120048
0.116573
0.101786
0.0769954
0.0497269
0.0276402
0.014246
0.00861913
0.00595255
0.00417646
0.00282355
0.00192634
0.00148372
0.00135672
0.00141164
0.00172902
0.00267803
0.0051631
0.012299
0.0296367
0.0495901
0.0622142
0.0641696
0.0604889
0.0480821
0.0282864
0.0245947
0.0431139
0.0938275
0.106178
0.102781
0.091287
0.0889071
0.103518
0.123871
0.124705
0.119716
0.108935
0.0973275
0.0851116
0.0717218
0.0570795
0.0426772
0.0306571
0.0221086
0.0152022
0.0116128
0.0132016
0.0295577
0.0800221
0.0754318
0.0401284
5.06049e-07
1.04924e-22
5.37291e-25
1.93829e-26
6.52026e-28
1.83319e-29
3.80439e-09
8.18811e-09
1.45687e-08
2.38162e-08
3.85083e-08
6.2038e-08
9.26314e-08
1.21157e-07
1.34566e-07
1.30469e-07
1.14726e-07
1.16186e-07
1.45097e-07
2.17689e-07
3.87282e-07
5.79732e-07
7.8738e-07
9.72249e-07
1.36451e-06
2.50214e-06
8.45622e-06
5.66306e-05
0.000964923
0.00759014
0.0153924
0.0166734
0.0109947
0.00268916
0.000272131
0.000108544
0.000122198
0.000273441
0.000787349
0.00124324
0.00136076
0.00199596
0.00814082
0.0410862
0.0901635
0.106148
0.109543
0.114249
0.114088
0.105087
0.0853552
0.0591705
0.0344822
0.0147421
0.00624922
0.0031401
0.00174285
0.000988596
0.000557131
0.000356854
0.000281342
0.00027171
0.000308528
0.000444226
0.000852721
0.00204052
0.00551022
0.0144557
0.029048
0.0405178
0.0421204
0.0376389
0.0242922
0.0167509
0.0200389
0.0558556
0.107424
0.116069
0.112665
0.103112
0.101948
0.112401
0.122307
0.120801
0.112556
0.0996455
0.0866245
0.0734354
0.0593419
0.0450415
0.0323041
0.0221276
0.0150268
0.0097923
0.00832626
0.0108575
0.0324251
0.0804291
0.0694776
0.0333776
2.5325e-12
6.6281e-24
2.99291e-25
1.19208e-26
4.1354e-28
1.17255e-29
4.40151e-09
8.85094e-09
1.41292e-08
1.80403e-08
1.96808e-08
2.0632e-08
2.09862e-08
1.95723e-08
1.66496e-08
1.50663e-08
1.28667e-08
1.24377e-08
1.40472e-08
1.8102e-08
2.44095e-08
3.13889e-08
4.65116e-08
6.68455e-08
1.06415e-07
2.1054e-07
7.00946e-07
3.99019e-06
3.03724e-05
0.000215444
0.000637995
0.00071146
0.000263535
4.86543e-05
1.26003e-05
8.10627e-06
8.82484e-06
1.42617e-05
2.6755e-05
4.74818e-05
9.44848e-05
0.000481839
0.00558592
0.0381471
0.0845715
0.106128
0.110042
0.110218
0.104208
0.0889472
0.0662522
0.0422953
0.0179669
0.00556772
0.0017399
0.000570565
0.000232102
0.00012005
7.36505e-05
5.51051e-05
4.90528e-05
5.02379e-05
6.02627e-05
8.7338e-05
0.000167178
0.00050008
0.00176634
0.00514833
0.0116547
0.0187963
0.0197924
0.0161446
0.0112042
0.0109751
0.0192176
0.0617153
0.113556
0.121592
0.119895
0.114091
0.113569
0.118902
0.120286
0.115848
0.103131
0.0875886
0.073354
0.0597876
0.0463366
0.0338479
0.0231059
0.0146699
0.0092874
0.00605073
0.00582375
0.00911051
0.0379533
0.0797533
0.0624525
0.0242072
1.58155e-15
4.47001e-24
2.02017e-25
7.84697e-27
2.66198e-28
7.44662e-30
7.78733e-09
1.35878e-08
1.43281e-08
1.15599e-08
9.11621e-09
6.86819e-09
4.64702e-09
3.40401e-09
2.31139e-09
1.77586e-09
1.34707e-09
1.18841e-09
1.24867e-09
1.43103e-09
1.76613e-09
2.1857e-09
2.77051e-09
3.59462e-09
5.82548e-09
1.11417e-08
3.27619e-08
1.51498e-07
7.994e-07
3.59924e-06
7.1444e-06
7.42218e-06
3.68211e-06
1.20931e-06
5.26954e-07
3.8702e-07
4.2582e-07
7.00689e-07
1.47287e-06
4.01229e-06
1.43633e-05
8.77065e-05
0.00232897
0.0258845
0.0682916
0.0940389
0.100753
0.0982016
0.0872639
0.0690548
0.048166
0.0215106
0.00588458
0.00109093
0.000187298
6.13833e-05
3.10846e-05
1.8861e-05
1.28812e-05
1.01979e-05
1.00241e-05
1.1249e-05
1.46624e-05
2.17641e-05
4.04785e-05
9.58754e-05
0.000338752
0.0012477
0.00338294
0.00598496
0.00664582
0.00590033
0.00565407
0.00793463
0.0186669
0.0612514
0.113591
0.123878
0.12383
0.122226
0.120905
0.120405
0.117836
0.108214
0.0911445
0.0726247
0.0580544
0.0456115
0.0341902
0.0237925
0.0149788
0.00877847
0.00526949
0.00372962
0.00413818
0.0083248
0.045266
0.0778203
0.0547394
0.0112924
6.7961e-18
3.01888e-24
1.28613e-25
4.78434e-27
1.59668e-28
4.43658e-30
1.20724e-08
1.00039e-08
6.02271e-09
2.70266e-09
1.33766e-09
6.66736e-10
3.40837e-10
2.06468e-10
1.43457e-10
9.21807e-11
7.12018e-11
6.9154e-11
7.08488e-11
7.45658e-11
8.00631e-11
8.73302e-11
1.04276e-10
1.47967e-10
2.24899e-10
3.90553e-10
9.4725e-10
3.42189e-09
1.2006e-08
3.86737e-08
6.29649e-08
6.68445e-08
4.45567e-08
2.43729e-08
1.56366e-08
1.33659e-08
1.6608e-08
2.91336e-08
8.16693e-08
3.38446e-07
1.8916e-06
1.51209e-05
0.000330228
0.0100774
0.0475155
0.0730794
0.0803048
0.0775906
0.066716
0.0498159
0.0234024
0.00628754
0.000770397
8.11443e-05
2.06938e-05
7.39217e-06
3.92494e-06
2.41506e-06
1.75856e-06
1.581e-06
1.72865e-06
2.21242e-06
3.359e-06
5.45312e-06
1.09779e-05
2.53343e-05
6.58191e-05
0.000197724
0.000663528
0.00145405
0.00199605
0.00236358
0.00333903
0.00636354
0.0162793
0.0517848
0.105544
0.123626
0.124916
0.124376
0.122572
0.119571
0.111987
0.097445
0.0757804
0.055933
0.0428796
0.0325269
0.0230735
0.0147917
0.00865799
0.00484233
0.00283225
0.00234407
0.00310138
0.00888657
0.0527167
0.0743995
0.0469409
0.00239944
8.67199e-20
1.78925e-24
7.33645e-26
2.69908e-27
9.02912e-29
2.50861e-30
4.69175e-09
8.11185e-10
9.76549e-11
2.92555e-11
1.20176e-11
5.8159e-12
2.86744e-12
2.10046e-12
1.72627e-12
1.67139e-12
1.7221e-12
1.8948e-12
2.0441e-12
2.12787e-12
2.19828e-12
2.31143e-12
2.55341e-12
3.01092e-12
4.12143e-12
9.53303e-12
2.0878e-11
5.22379e-11
1.44457e-10
3.42453e-10
5.41203e-10
6.04699e-10
5.27352e-10
3.99284e-10
3.43065e-10
3.51261e-10
4.60267e-10
8.7478e-10
3.62723e-09
2.01372e-08
1.36598e-07
1.33124e-06
2.7252e-05
0.00155239
0.0193479
0.0467717
0.0582432
0.0554323
0.0415743
0.0213915
0.00586024
0.000497092
4.13252e-05
6.61159e-06
1.64619e-06
6.53485e-07
3.71662e-07
2.49061e-07
2.10681e-07
2.18827e-07
2.78059e-07
4.18512e-07
7.53429e-07
1.37201e-06
3.12208e-06
7.45059e-06
1.90223e-05
4.69012e-05
0.000119892
0.000300277
0.000581948
0.00103267
0.00209679
0.00474175
0.0128464
0.0416946
0.0924404
0.117573
0.121574
0.121765
0.120238
0.114926
0.102362
0.083103
0.058591
0.0401508
0.0287172
0.020054
0.0131196
0.00799901
0.00464581
0.00258341
0.0015776
0.00156615
0.00256756
0.0110673
0.0587787
0.0699505
0.0397018
5.99272e-05
5.10664e-22
1.00988e-24
4.1323e-26
1.52428e-27
5.06573e-29
1.39038e-30
6.1758e-22
3.03664e-19
1.88394e-17
2.90135e-16
7.92178e-16
9.57699e-16
1.07192e-15
1.55859e-15
3.35821e-15
5.36467e-15
1.01703e-14
1.6649e-14
2.02221e-14
2.21307e-14
2.37038e-14
2.58897e-14
2.96582e-14
3.85872e-14
5.53563e-14
7.74505e-14
2.46668e-13
5.99967e-13
1.35628e-12
2.54621e-12
3.54437e-12
4.058e-12
4.11963e-12
4.01631e-12
3.96019e-12
4.28098e-12
6.36023e-12
1.82585e-11
7.31936e-11
4.91049e-10
3.92345e-09
4.12601e-08
1.04594e-06
4.761e-05
0.00243349
0.0150603
0.023625
0.0218253
0.0126748
0.00316076
0.000201058
1.546e-05
1.62347e-06
2.70244e-07
7.52979e-08
3.57885e-08
2.55503e-08
2.01293e-08
2.03744e-08
2.68599e-08
4.3392e-08
8.21762e-08
1.77391e-07
3.76402e-07
9.40629e-07
2.3821e-06
5.97101e-06
1.51055e-05
3.69669e-05
8.28718e-05
0.000179959
0.000425215
0.00111295
0.0028599
0.00853654
0.0312606
0.0734682
0.103144
0.111223
0.113443
0.112026
0.104383
0.0882098
0.0654809
0.0416674
0.0241023
0.0147301
0.00951566
0.00616232
0.00391843
0.00247687
0.00145882
0.0010392
0.0012196
0.00249241
0.0152933
0.0637924
0.0646
0.0333554
2.13987e-07
4.04444e-23
6.10673e-25
2.43991e-26
8.69769e-28
2.77758e-29
7.36461e-31
9.81553e-25
3.38458e-24
7.632e-24
1.58454e-22
3.31611e-22
4.81227e-21
2.56694e-20
9.54558e-20
6.79888e-19
2.34631e-18
4.54405e-18
1.08634e-17
1.94639e-17
2.59294e-17
3.22514e-17
3.97879e-17
9.03219e-17
1.83259e-16
2.96205e-16
6.43096e-16
1.10659e-15
3.78018e-15
6.64564e-15
1.79861e-14
2.56745e-14
2.9517e-14
3.01489e-14
2.92235e-14
2.81975e-14
3.04204e-14
4.07761e-14
8.63296e-14
4.73764e-13
3.33664e-12
2.65171e-11
3.14291e-10
7.24474e-09
4.96255e-07
2.4726e-05
0.000397017
0.00145245
0.00114374
0.000267525
3.09274e-05
2.2746e-06
1.70511e-07
2.16863e-08
4.95394e-09
2.02039e-09
1.06651e-09
9.95822e-10
1.02397e-09
1.5859e-09
3.09748e-09
6.9289e-09
1.77744e-08
4.48387e-08
1.15737e-07
3.14942e-07
8.44623e-07
2.09775e-06
5.27383e-06
1.37729e-05
3.23309e-05
6.83591e-05
0.000144758
0.000389551
0.00118683
0.0044538
0.0199349
0.0524266
0.080458
0.0918551
0.0968904
0.0962007
0.0876109
0.0688144
0.0465891
0.0235912
0.00979456
0.00551276
0.00369147
0.00263764
0.00200303
0.00157055
0.00112491
0.000946958
0.00122949
0.00291148
0.0220792
0.0661607
0.0573685
0.0283685
1.60142e-11
9.19203e-24
3.73791e-25
1.3941e-26
4.65339e-28
1.40392e-29
3.56283e-31
8.06324e-26
2.6651e-25
6.66791e-25
1.27932e-24
2.21644e-24
3.6374e-24
5.55619e-24
8.18054e-24
7.26515e-23
1.98329e-22
3.2395e-22
1.40577e-21
3.96899e-21
6.5904e-21
9.39294e-21
3.5923e-20
7.33354e-20
1.77889e-19
6.07341e-19
1.34679e-18
3.78211e-18
1.16324e-17
2.82892e-17
3.84371e-17
4.10952e-17
4.04959e-17
3.5493e-17
2.89855e-17
2.4324e-17
2.55769e-17
3.66543e-17
1.25654e-16
5.91903e-16
4.19141e-15
3.52883e-14
3.06131e-13
6.06354e-12
3.98876e-10
2.45171e-08
6.21503e-07
2.22441e-06
1.72788e-06
4.36604e-07
4.15274e-08
3.41417e-09
4.60037e-10
1.04043e-10
4.555e-11
3.34129e-11
3.39446e-11
4.48874e-11
6.37078e-11
1.48837e-10
4.53937e-10
1.22899e-09
4.97672e-09
1.43935e-08
4.26595e-08
1.20349e-07
3.12542e-07
7.89674e-07
1.89561e-06
5.02293e-06
1.19955e-05
2.49219e-05
4.75254e-05
0.000101707
0.000287649
0.00160765
0.00928086
0.0306259
0.0543841
0.0656003
0.0726412
0.0728435
0.0648267
0.0475225
0.0262555
0.00820378
0.00303304
0.00193551
0.00156048
0.00146751
0.00154301
0.00151308
0.0012443
0.00107198
0.00145627
0.00403133
0.0313425
0.0652546
0.0484268
0.0183813
4.97281e-16
5.12195e-24
1.99203e-25
6.86856e-27
2.15275e-28
6.19349e-30
1.51628e-31
4.76464e-27
1.76976e-26
5.28855e-26
1.18221e-25
2.37896e-25
4.36739e-25
7.32134e-25
1.13714e-24
1.65379e-24
2.28363e-24
3.01356e-24
3.84927e-24
4.83185e-24
6.04468e-24
7.58346e-24
9.59604e-24
7.80099e-23
2.12638e-22
3.80161e-22
4.63379e-21
9.54269e-21
4.05229e-20
5.16217e-20
4.83915e-20
2.59481e-20
8.8395e-21
5.57812e-21
4.11278e-21
3.98794e-21
4.84722e-21
7.8697e-21
2.87228e-20
1.09578e-19
8.02688e-19
3.81896e-18
3.10839e-17
4.34511e-16
1.09995e-14
6.26497e-13
1.21477e-11
5.3138e-11
4.79142e-11
1.7286e-11
3.81385e-12
1.16782e-12
4.85062e-13
3.36251e-13
3.49111e-13
5.08706e-13
1.00517e-12
2.34546e-12
5.51963e-12
2.32405e-11
8.9877e-11
4.36806e-10
1.53714e-09
6.22117e-09
1.74822e-08
5.06943e-08
1.2393e-07
2.91059e-07
6.63774e-07
1.66749e-06
3.69081e-06
7.05385e-06
1.24356e-05
2.54206e-05
6.35216e-05
0.000334986
0.00284446
0.010536
0.025861
0.0372807
0.0458066
0.0470918
0.0403844
0.0235257
0.00813494
0.00218859
0.00118287
0.00111304
0.00116942
0.00140226
0.00188333
0.00200007
0.00177064
0.00151767
0.00214037
0.00691382
0.0409068
0.0601826
0.0380536
0.00167467
5.54496e-20
2.32926e-24
8.46491e-26
2.79146e-27
8.46665e-29
2.36806e-30
5.65543e-32
2.40545e-28
9.80687e-28
3.35929e-27
8.52615e-27
1.91504e-26
3.83027e-26
6.9211e-26
1.14694e-25
1.77994e-25
2.63493e-25
3.77233e-25
5.29251e-25
7.35216e-25
1.0107e-24
1.38629e-24
1.92694e-24
2.73371e-24
3.92571e-24
5.67981e-24
8.01983e-24
9.70091e-24
9.79604e-24
9.06746e-24
7.59635e-24
6.07013e-24
5.01992e-24
4.52914e-24
4.66852e-24
5.22977e-24
6.2373e-24
7.91648e-24
1.0482e-23
4.96438e-23
2.10839e-22
4.12937e-22
4.38089e-21
1.27457e-20
1.16691e-19
1.13154e-18
7.35553e-18
5.36058e-17
2.02441e-16
3.49518e-16
4.50183e-16
6.7122e-16
1.14479e-15
1.78322e-15
6.15238e-15
1.91141e-14
6.04263e-14
1.70322e-13
1.25279e-12
5.55243e-12
3.68481e-11
1.76275e-10
8.10161e-10
3.10403e-09
8.47981e-09
2.122e-08
4.80375e-08
9.14949e-08
2.16924e-07
4.73326e-07
9.20603e-07
1.56163e-06
2.44441e-06
5.09546e-06
1.38701e-05
6.67767e-05
0.000484558
0.0021352
0.00590136
0.00985473
0.0149827
0.0166666
0.0126026
0.00548494
0.00173374
0.000927993
0.000932299
0.00105253
0.00132606
0.00189896
0.00304317
0.00338971
0.00303567
0.00263769
0.0036035
0.0131236
0.0473417
0.0505316
0.0290792
9.26231e-08
2.46279e-23
8.39963e-25
3.02498e-26
9.81646e-28
2.9101e-29
7.95884e-31
1.86804e-32
9.55362e-30
4.56222e-29
1.80162e-28
5.13974e-28
1.27914e-27
2.76988e-27
5.39142e-27
9.61681e-27
1.61473e-26
2.60164e-26
4.08061e-26
6.30371e-26
9.65768e-26
1.47123e-25
2.2287e-25
3.33119e-25
4.93874e-25
7.18272e-25
9.97702e-25
1.24809e-24
1.28922e-24
1.15811e-24
9.48809e-25
7.47086e-25
6.06383e-25
5.5911e-25
6.30938e-25
8.4184e-25
1.22067e-24
1.81402e-24
2.86223e-24
4.56099e-24
7.09381e-24
1.04559e-23
1.44554e-23
1.49173e-22
3.50867e-22
5.86264e-22
7.03679e-21
1.41962e-20
8.1548e-20
1.5846e-19
8.58226e-19
1.96921e-18
6.29795e-18
2.9264e-17
9.72918e-17
5.08121e-16
1.82036e-15
1.11044e-14
7.62592e-14
5.19537e-13
3.59712e-12
2.4558e-11
1.23086e-10
5.41599e-10
1.34717e-09
4.13523e-09
8.76802e-09
1.6756e-08
3.24893e-08
5.94765e-08
1.05377e-07
1.79722e-07
2.7618e-07
4.00498e-07
8.82667e-07
2.97344e-06
1.73385e-05
8.84153e-05
0.000298727
0.000841577
0.00144074
0.00224085
0.002477
0.00186054
0.000937733
0.000658445
0.000755788
0.00106165
0.00144357
0.001987
0.00308008
0.00513217
0.00569941
0.00520169
0.00478498
0.00666742
0.0236546
0.050922
0.0388796
0.0164011
9.5425e-17
6.75603e-24
2.73124e-25
9.60338e-27
3.03604e-28
8.83527e-30
2.39382e-31
5.61213e-33
3.31958e-31
1.80878e-30
7.99208e-30
2.52936e-29
6.91937e-29
1.63006e-28
3.44861e-28
6.71007e-28
1.23336e-27
2.17848e-27
3.74598e-27
6.32096e-27
1.05193e-26
1.7318e-26
2.81712e-26
4.48257e-26
6.78033e-26
9.50626e-26
1.20655e-25
1.32251e-25
1.23672e-25
1.02932e-25
8.20389e-26
7.15973e-26
7.94944e-26
1.13803e-25
1.86203e-25
3.63599e-25
8.33406e-25
1.75659e-24
3.26277e-24
5.45184e-24
8.34989e-24
1.19153e-23
1.6088e-23
1.70023e-22
3.64853e-22
5.7767e-22
5.00786e-21
1.11974e-20
3.43228e-20
1.08366e-19
3.00921e-19
1.13874e-18
3.61648e-18
8.86764e-18
5.89371e-17
4.02776e-16
1.63636e-15
1.07777e-14
7.92724e-14
5.71245e-13
3.92045e-12
2.4393e-11
9.6629e-11
3.66156e-10
8.73469e-10
1.44162e-09
3.15033e-09
5.10204e-09
8.83772e-09
1.49371e-08
2.25194e-08
3.14225e-08
4.25078e-08
6.26156e-08
1.66311e-07
8.25971e-07
6.25191e-06
3.12551e-05
8.22704e-05
0.00015593
0.000222342
0.000313795
0.000362631
0.00034346
0.000335766
0.000438855
0.000949127
0.00187329
0.00257225
0.00344688
0.00509912
0.00793334
0.00862708
0.00813114
0.00820214
0.0128308
0.035846
0.0473413
0.0298296
3.04768e-05
7.22264e-22
1.97109e-24
7.71564e-26
2.67072e-27
8.41131e-29
2.46085e-30
6.73839e-32
1.60338e-33
9.87313e-33
6.14735e-32
3.01745e-31
1.05784e-30
3.18959e-30
8.22659e-30
1.90304e-29
4.05081e-29
8.14267e-29
1.56713e-28
2.92502e-28
5.32607e-28
9.49433e-28
1.66077e-27
2.83983e-27
4.66503e-27
7.0346e-27
9.5276e-27
1.13778e-26
1.13094e-26
1.01662e-26
8.95168e-27
9.2248e-27
1.29031e-26
2.26112e-26
4.8499e-26
1.32402e-25
3.74055e-25
9.33433e-25
2.02619e-24
3.8571e-24
6.53865e-24
1.00531e-23
1.42999e-23
6.87885e-23
2.68593e-22
4.84089e-22
1.60294e-21
7.69433e-21
1.4257e-20
6.03066e-20
1.40556e-19
5.78894e-19
1.4984e-18
5.48258e-18
2.27758e-17
8.11729e-17
5.90221e-16
2.30105e-15
2.55402e-14
1.21267e-13
9.10517e-13
5.44437e-12
2.72349e-11
8.08719e-11
2.10424e-10
4.26484e-10
6.36617e-10
8.75562e-10
1.23441e-09
1.74607e-09
3.28096e-09
4.24204e-09
4.60287e-09
5.62373e-09
1.02771e-08
4.5845e-08
4.02715e-07
3.97449e-06
1.96048e-05
4.14789e-05
6.06507e-05
7.2493e-05
8.93724e-05
0.000106026
0.000128345
0.000182936
0.000424106
0.00158678
0.00371579
0.00509375
0.00648726
0.00863399
0.0115472
0.0119393
0.0117916
0.013098
0.0238931
0.043052
0.0368628
0.0177553
2.54754e-15
1.02484e-23
4.90968e-25
1.95172e-26
6.87524e-28
2.20463e-29
6.58267e-31
1.83937e-32
4.46538e-34
2.59339e-34
1.83463e-33
9.89191e-33
3.81166e-32
1.26001e-31
3.55242e-31
8.96056e-31
2.07705e-30
4.53684e-30
9.4478e-30
1.89716e-29
3.68762e-29
6.97255e-29
1.28244e-28
2.2748e-28
3.81718e-28
5.73072e-28
7.61865e-28
8.93728e-28
9.00122e-28
9.36615e-28
1.17045e-27
1.90657e-27
3.89302e-27
1.0206e-26
3.12038e-26
9.74662e-26
2.94263e-25
7.80354e-25
1.78541e-24
3.55462e-24
6.24628e-24
9.89396e-24
1.44388e-23
5.82489e-23
2.81624e-22
5.31189e-22
2.97163e-21
1.04738e-20
2.23952e-20
1.12319e-19
3.17288e-19
1.31255e-18
4.51292e-18
1.23708e-17
7.13155e-17
4.81151e-16
1.85026e-15
1.1501e-14
7.55114e-14
4.10047e-13
2.36079e-12
7.12127e-12
2.70748e-11
6.34828e-11
9.4387e-11
1.38156e-10
1.65218e-10
2.08344e-10
2.77551e-10
5.20742e-10
6.31627e-10
6.037e-10
5.71503e-10
7.41107e-10
1.72959e-09
2.01238e-08
3.5354e-07
3.90965e-06
1.59602e-05
2.36358e-05
2.30652e-05