/*--------------------------------*- C++ -*----------------------------------*\
| =========                 |                                                 |
| \\      /  F ield         | OpenFOAM: The Open Source CFD Toolbox           |
|  \\    /   O peration     | Version:  2.3.0                                 |
|   \\  /    A nd           | Web:      www.OpenFOAM.org                      |
|    \\/     M anipulation  |                                                 |
\*---------------------------------------------------------------------------*/
FoamFile
{
    version     2.0;
    format      ascii;
    class       volScalarField;
    location    "0.05";
    object      chi;
}
// * * * * * * * * * * * * * * * * * * * * * * * * * * * * * * * * * * * * * //

dimensions      [0 0 -1 0 0 0 0];

internalField   nonuniform List<scalar> 
5000
(
3.6266e-25
2.0615e-24
3.89386e-24
1.15576e-23
1.35964e-23
1.2069e-23
5.74843e-23
1.01605e-22
1.42677e-22
8.89156e-22
8.55727e-22
9.73088e-22
6.45046e-22
1.63192e-21
1.26179e-21
5.45856e-21
6.75809e-20
2.79404e-19
7.44498e-19
7.48042e-19
8.49612e-18
8.85994e-17
2.85127e-16
1.03401e-15
3.12603e-15
1.30426e-14
3.98173e-14
1.92491e-13
6.60346e-13
1.18369e-12
2.28759e-12
1.11711e-12
6.23447e-12
3.93594e-11
1.77264e-10
3.21221e-10
1.18203e-10
2.05401e-10
4.26915e-10
8.4705e-10
2.45104e-09
5.20055e-10
2.58141e-10
1.57769e-10
3.41159e-10
1.19503e-09
1.90928e-09
1.83698e-09
4.26597e-09
2.46307e-09
1.06144e-08
3.50009e-08
1.36239e-08
2.84935e-08
2.5943e-07
1.04168e-06
5.84539e-06
2.09027e-05
5.28109e-05
0.000135354
0.00030953
0.00060287
0.00103792
0.00122001
0.00106107
0.000572922
0.00150268
0.00157977
0.00102567
0.000616733
0.000267567
0.000177497
5.53388e-05
8.98779e-07
2.52825e-06
2.44481e-06
5.4783e-06
1.30926e-05
2.95839e-05
6.40958e-05
0.000121865
0.000174405
0.00016803
0.000184905
0.000264621
0.00033507
0.000553398
0.000857874
0.000768709
0.000733766
0.000446268
0.000209221
3.03718e-05
8.34633e-06
3.0562e-05
3.98035e-05
5.36681e-05
7.85672e-05
0.000125875
0.000118479
5.69879e-22
4.59214e-22
3.01218e-22
1.81181e-21
4.43122e-21
7.39759e-21
1.40772e-20
2.62061e-20
3.12479e-20
1.43343e-20
1.62186e-20
1.26323e-20
1.49801e-20
6.21331e-20
2.10842e-19
1.0371e-18
4.63106e-18
3.77389e-17
1.47976e-16
4.9777e-16
1.40382e-15
5.08321e-15
2.4026e-14
1.08522e-13
3.06547e-13
1.05077e-12
3.92398e-12
1.47913e-11
4.68333e-11
1.58982e-10
2.77835e-10
7.30758e-11
1.98521e-10
7.87552e-10
3.37866e-09
9.27933e-09
2.21307e-09
2.30077e-08
4.63309e-08
7.62702e-08
7.95323e-08
4.62775e-08
1.71405e-08
6.30577e-09
4.05811e-09
9.20084e-09
3.52199e-08
4.25714e-08
7.13253e-08
6.63905e-08
1.43634e-07
3.17601e-07
5.24898e-07
9.42554e-07
9.32267e-07
7.79416e-06
3.48964e-05
0.000134318
0.000423433
0.0010802
0.00276402
0.0056351
0.0104961
0.0183853
0.0308268
0.050772
0.0843923
0.137694
0.158648
0.0881998
0.0216088
0.00443864
0.00034196
6.35761e-05
5.40598e-05
7.64639e-05
0.00012096
0.000203331
0.000419125
0.000906163
0.00200672
0.0036564
0.00503194
0.00549431
0.00545181
0.00598161
0.00688516
0.00752108
0.00639658
0.00526035
0.00224034
0.000964563
0.00109851
0.0014909
0.00236946
0.00344312
0.00420027
0.00445705
0.00470093
0.00540594
5.61952e-20
5.10123e-20
1.15355e-19
3.23032e-19
2.99563e-19
4.42566e-19
1.17866e-18
2.22813e-18
2.96825e-18
3.22659e-18
2.51107e-18
2.18722e-18
4.34396e-18
1.25183e-17
3.65903e-17
1.05472e-16
3.85797e-16
7.32112e-16
2.27122e-15
8.98551e-15
2.11031e-14
1.28623e-13
6.43167e-13
3.20705e-12
3.44582e-12
1.36e-11
8.25671e-11
5.47513e-10
2.7995e-09
9.99614e-09
1.48094e-08
4.05854e-09
4.40698e-09
1.59663e-08
7.69513e-08
2.04253e-07
4.05968e-07
9.72242e-07
2.9232e-06
6.96861e-06
7.06603e-06
3.25688e-06
1.32809e-06
6.62816e-07
6.45298e-07
5.95852e-07
1.99944e-06
6.1968e-06
8.58227e-06
7.093e-06
5.45396e-06
4.50512e-06
4.03948e-06
4.37826e-06
6.38408e-06
3.3698e-05
0.000171821
0.000617369
0.00163597
0.00348823
0.00643981
0.0105826
0.016128
0.0233464
0.032445
0.0441969
0.0684762
0.135016
0.29743
0.415388
0.307289
0.059679
0.00157828
0.000417727
0.000407227
0.000596347
0.00104963
0.00203564
0.00408091
0.00774329
0.014734
0.0273049
0.0446312
0.0620124
0.0829019
0.136381
0.186215
0.164501
0.112514
0.052176
0.012643
0.00301262
0.00279041
0.00337668
0.00550634
0.00942207
0.0149445
0.0217533
0.028041
0.0357224
1.35376e-17
1.54288e-17
1.72042e-16
5.17908e-16
5.66327e-16
4.43723e-16
4.25872e-16
5.46842e-16
5.0363e-16
1.84266e-16
1.59847e-16
2.04261e-16
6.74935e-16
1.58589e-15
2.48328e-15
2.18123e-15
5.48312e-15
2.03872e-14
9.88653e-14
7.05692e-13
2.28121e-12
9.85764e-12
4.17547e-11
2.00341e-10
2.9106e-10
1.17141e-09
4.97818e-09
1.34468e-08
6.52099e-08
2.79705e-07
4.05376e-07
1.23047e-07
4.62726e-08
5.32536e-08
1.67694e-07
7.0992e-07
2.54925e-06
2.05665e-05
0.000228032
0.00136813
0.00148047
0.000756769
0.000275562
0.00011161
4.35831e-05
3.09902e-05
5.48158e-05
0.000194362
0.00102781
0.00143162
0.000842788
0.000382697
0.000114
3.56613e-05
3.67169e-05
0.000115
0.000494203
0.00155548
0.0036431
0.0067867
0.0110734
0.0167813
0.0247329
0.0374754
0.0585314
0.0922286
0.138152
0.19106
0.340787
0.544496
0.674555
0.338342
0.01486
0.00142046
0.00101934
0.00157008
0.00342725
0.00711629
0.0131375
0.0222887
0.0372627
0.0639065
0.11467
0.19529
0.313607
0.550346
0.819024
0.801771
0.650045
0.346294
0.0802368
0.0119097
0.007331
0.00786842
0.0103458
0.0161239
0.0262407
0.0414723
0.0621825
0.0995862
3.5804e-15
5.61031e-15
4.1778e-15
1.55256e-13
2.97503e-13
2.75076e-13
1.19655e-13
5.31939e-14
3.4337e-14
2.31436e-14
2.60387e-14
4.77385e-14
1.29468e-13
9.17027e-14
3.30499e-14
9.84496e-14
3.83459e-13
1.24269e-12
4.96138e-12
8.17624e-12
1.53465e-11
7.91589e-11
4.89845e-10
2.25497e-09
8.33653e-09
1.98685e-08
1.7397e-08
1.82522e-07
1.71716e-06
8.99717e-06
1.44033e-05
4.37787e-06
1.64471e-06
8.49158e-07
9.81874e-07
3.05095e-06
1.09765e-05
7.94433e-05
0.00066097
0.00346715
0.0152125
0.0291243
0.0258023
0.00622842
0.00133906
0.000411611
0.000280122
0.000358064
0.00101459
0.00474985
0.00741521
0.00572659
0.00143714
0.000198185
0.000137809
0.000288654
0.00102707
0.0030264
0.00694082
0.0131804
0.0231701
0.0398852
0.0701152
0.130828
0.243955
0.406155
0.550011
0.603255
0.569198
0.690069
0.842918
0.885878
0.141187
0.00352476
0.00154321
0.00207819
0.00425084
0.00952512
0.0188245
0.033836
0.0601371
0.113127
0.234714
0.459562
0.688809
0.780166
0.780702
0.85453
0.913277
0.867261
0.372763
0.0604964
0.021856
0.0211697
0.0238973
0.0320054
0.0459279
0.0672879
0.0977297
0.184288
2.9926e-14
1.71748e-13
4.32109e-12
2.01616e-11
3.0675e-11
2.38739e-11
2.25097e-11
8.54208e-12
5.57536e-12
3.04089e-12
2.98309e-12
4.99902e-12
1.15755e-11
1.08471e-11
1.87013e-11
3.06603e-11
5.02913e-11
2.30388e-10
7.61716e-10
1.23434e-09
1.00251e-09
2.56704e-10
3.78394e-09
3.03617e-08
1.35627e-07
1.23874e-07
8.92714e-07
7.70457e-06
8.29946e-05
0.000797123
0.0015164
0.000572391
0.000151943
4.43557e-05
1.67523e-05
1.83914e-05
2.96928e-05
0.000161309
0.000847797
0.00317592
0.0102827
0.0440933
0.093931
0.0990527
0.0482222
0.00537362
0.00186959
0.00109964
0.0010424
0.00272852
0.0114745
0.015014
0.00876737
0.00132739
0.000432617
0.000616603
0.0017577
0.00509548
0.0126279
0.0271277
0.0560225
0.113532
0.230266
0.460497
0.723071
0.833449
0.714506
0.509858
0.337581
0.314894
0.409378
0.831737
0.523857
0.00902113
0.00256851
0.00272157
0.00509589
0.0118702
0.0249425
0.0480052
0.0943003
0.201652
0.421074
0.642158
0.531634
0.0800361
0.00716925
0.00540657
0.0459644
0.34496
0.655379
0.251243
0.0825035
0.0713103
0.07009
0.0753765
0.0870107
0.106672
0.133782
0.223116
1.65053e-11
8.93202e-11
3.83438e-10
1.73557e-09
2.7486e-09
1.45608e-09
2.87344e-10
3.95684e-10
2.54052e-10
3.55833e-10
3.06514e-10
2.74199e-10
3.84671e-10
7.93896e-10
1.23294e-09
4.25407e-10
1.35254e-09
8.07322e-09
1.92336e-08
3.3555e-08
4.344e-08
2.97944e-08
8.00631e-08
3.62307e-07
1.70167e-06
2.72854e-06
1.21203e-05
7.83932e-05
0.000732924
0.00862053
0.0797487
0.102998
0.0261133
0.00641588
0.00147268
0.000264386
0.000145143
0.000268012
0.000955363
0.00307143
0.00778156
0.0244851
0.117219
0.288379
0.351921
0.194575
0.0182888
0.00796152
0.0046387
0.00475534
0.0131745
0.0231256
0.0230471
0.00565445
0.00112595
0.00122204
0.00276926
0.00810233
0.0223947
0.0555089
0.133047
0.297507
0.568973
0.805707
0.663773
0.192209
0.00601956
0.00703469
0.0124368
0.000285255
0.00516879
0.11371
0.677499
0.0441739
0.00560037
0.00473558
0.00792417
0.0179936
0.0385325
0.0785071
0.171574
0.381836
0.511631
0.121761
0.00391622
0.0624544
0.0910762
0.0252731
0.00404616
0.00873703
0.224532
0.469763
0.271498
0.203085
0.186937
0.167363
0.153636
0.152006
0.161808
0.205313
9.91763e-11
1.57005e-09
1.9249e-08
1.65046e-07
4.12399e-07
4.07623e-07
1.8316e-07
8.39622e-08
1.06905e-07
4.88932e-08
3.7738e-08
3.97362e-08
5.86583e-08
5.65468e-08
8.04448e-08
1.90275e-07
2.9992e-07
1.05947e-06
4.33573e-06
1.00218e-05
8.34918e-06
4.67541e-06
4.67773e-06
7.29797e-06
1.81887e-05
4.10174e-05
0.000139745
0.000684309
0.00398859
0.0316047
0.245463
1.92187
3.00421
0.97423
0.0810399
0.00569586
0.000540861
0.000520933
0.00139964
0.00472925
0.0146613
0.0415059
0.141702
0.485312
0.824956
0.97681
0.452344
0.0871048
0.0534227
0.0377259
0.0334374
0.0424643
0.0439347
0.0146211
0.00251965
0.00237807
0.00485702
0.0145573
0.043373
0.116875
0.289921
0.574911
0.691881
0.378283
0.0359346
0.0101727
0.0192866
0.109908
0.249474
0.3462
0.152006
0.0270618
0.238365
0.16047
0.0110288
0.00716874
0.0109483
0.0253455
0.0599194
0.145526
0.363194
0.517799
0.07481
0.00553747
0.148134
0.323569
0.277602
0.317509
0.302337
0.0929598
0.00904683
0.244828
0.40556
0.304674
0.2569
0.214047
0.174293
0.148887
0.138749
0.126654
8.42488e-08
1.46035e-06
1.86535e-05
0.00012548
0.000376399
0.000462879
0.000288878
0.000187096
0.000156175
7.79049e-05
2.40074e-05
1.16574e-05
8.71444e-06
1.02419e-05
1.77663e-05
3.76555e-05
9.27568e-05
0.0002911
0.00109198
0.00327317
0.00347652
0.0017396
0.000893337
0.000524043
0.00050155
0.000769722
0.00165543
0.00526164
0.0205426
0.124024
0.940555
4.41321
8.26194
8.83824
3.86418
0.0907387
0.00357117
0.00179929
0.00359087
0.0140911
0.0538568
0.158226
0.339116
0.561548
0.719954
0.982442
1.22547
0.733053
0.45551
0.304537
0.18959
0.143117
0.0980834
0.0281319
0.00488288
0.00411981
0.00824764
0.0253844
0.080088
0.226364
0.496788
0.582028
0.263726
0.0529868
0.0278771
0.0341643
0.0391574
0.0143606
0.0483984
0.207155
0.248087
0.0835455
0.0661706
0.111684
0.010463
0.00914757
0.0164952
0.0417954
0.1107
0.306518
0.574923
0.156633
0.00527848
0.153361
0.298976
0.116989
0.0290254
0.0420444
0.11589
0.142654
0.0167827
0.0239135
0.115195
0.179446
0.143458
0.120329
0.0965411
0.0743351
0.0589683
0.0123893
0.000134744
0.00160902
0.015648
0.09599
0.471952
1.2515
1.03309
0.653991
0.735868
0.54571
0.144703
0.0409815
0.0180242
0.0140214
0.0194956
0.0330361
0.0605679
0.119929
0.308641
1.50015
4.55068
2.29519
0.695832
0.185023
0.0296577
0.0120759
0.0148938
0.0313862
0.116154
0.778837
4.59711
6.87501
4.22151
4.83122
8.19348
1.76046
0.0118957
0.00657203
0.0115696
0.0446624
0.166908
0.414967
0.570713
0.333707
0.199738
0.256268
0.588479
1.32257
1.81419
1.5901
1.12811
0.706241
0.316038
0.0569759
0.00845025
0.00692538
0.0139158
0.0450185
0.147172
0.367916
0.515271
0.24403
0.0939352
0.0708515
0.163023
0.392185
0.956598
0.468452
0.00972559
0.0255327
0.100626
0.0900803
0.0576446
0.055245
0.00697828
0.0102487
0.0260892
0.0752396
0.222328
0.54882
0.346933
0.023451
0.0854136
0.243714
0.0875058
0.00425446
0.00239868
0.00369849
0.0126603
0.071666
0.0378852
0.00328724
0.00456072
0.0181766
0.0345354
0.0301658
0.0244556
0.0148941
0.00788827
0.00329869
195.314
30.0002
29.444
64.4915
118.04
112.547
90.5988
85.9459
96.0184
86.5661
46.3005
9.61733
1.31128
0.787268
1.18032
2.51596
3.71451
4.33953
6.96912
18.513
26.1151
23.8723
17.156
6.58057
0.658378
0.0858613
0.0832614
0.162511
0.739403
4.71925
11.5287
3.85171
0.0118125
0.122484
1.28094
2.97623
0.0538204
0.0189178
0.0344645
0.12756
0.390865
0.586788
0.314642
0.0539184
0.0701005
0.27814
0.804152
1.97449
3.17789
3.51905
3.21799
2.35487
1.0555
0.147086
0.0162136
0.0123999
0.025604
0.0854503
0.253117
0.423444
0.332183
0.281865
0.469059
2.29317
4.10654
3.25628
1.67793
0.582217
0.094698
0.0109259
0.0306451
0.0718956
0.0553599
0.0469189
0.00544849
0.0128144
0.0443939
0.146103
0.44398
0.622813
0.121146
0.0176514
0.167888
0.0679972
0.00538908
0.0113249
0.00539295
0.0026833
0.00216476
0.0179696
0.0395924
0.00448957
0.0018159
0.00495135
0.00974477
0.0105184
0.00825321
0.00522877
0.00467082
0.0123883
19.1422
114.392
101.284
80.6575
29.9214
23.2916
38.2583
44.5429
31.9628
27.9982
30.8493
18.3546
10.3647
10.2155
15.5374
21.5505
21.0771
21.1007
28.4316
29.5209
8.0051
0.75905
1.20505
3.68329
1.85585
0.33874
0.33096
0.936209
4.71883
17.3919
10.261
0.132075
5.28212
4.58497
2.60111
1.26862
0.0740296
0.041813
0.0927671
0.340039
0.680567
0.46931
0.22595
0.0784826
0.247124
2.3225
4.65144
3.86415
2.28809
1.84593
2.23984
2.49276
2.1026
0.411986
0.0341093
0.0237649
0.04771
0.14882
0.346551
0.443625
0.625523
1.81648
4.5805
7.04234
4.11835
1.36448
0.274061
0.308094
0.114327
0.0204333
0.0240259
0.0610514
0.0696143
0.0380999
0.00693598
0.0197002
0.0812964
0.279856
0.703941
0.435531
0.105436
0.054987
0.0510582
0.00528721
0.056021
0.0491721
0.0284896
0.00812768
0.00319775
0.00397936
0.0258411
0.0134865
0.00283487
0.00564827
0.0179947
0.020161
0.0161912
0.0089373
0.00624886
0.00562102
0.262481
6.04561
7.49145
3.5957
3.10053
3.82296
4.80179
4.74376
4.44395
8.0355
24.7388
48.6821
48.5387
46.4333
49.6787
42.871
38.6883
38.0606
34.9134
13.1228
3.89126
4.50749
5.10953
2.4775
0.31787
0.72794
1.67197
5.63194
20.1113
27.1806
4.56052
5.06372
5.05562
3.4423
2.52725
0.969924
0.0307493
0.073959
0.236327
0.751184
1.22284
1.45044
1.41443
4.14265
12.3627
12.419
6.62796
0.744422
0.584161
0.482049
0.0387271
0.181316
1.11601
0.75092
0.0575719
0.0427726
0.0854
0.240025
0.499532
0.890169
2.42213
6.27113
9.38736
5.29429
0.941602
0.710739
1.71549
0.903678
0.131588
0.0213485
0.0273212
0.0584766
0.106992
0.00990221
0.00673825
0.0364618
0.152911
0.49779
0.861402
0.33121
0.14014
0.0652643
0.0736682
0.208531
0.129319
0.0579487
0.024683
0.010643
0.00420029
0.00300947
0.0119163
0.0187447
0.00467168
0.0250441
0.0759791
0.0845256
0.0748229
0.0515796
0.0389684
0.0539033
0.00232971
0.0684291
0.111867
0.133115
0.206427
0.33111
0.437632
0.533751
0.864116
2.96871
11.2075
31.5796
47.4127
46.4791
34.7313
26.5885
26.0658
24.48
15.3863
9.7654
10.8753
7.85244
2.63388
0.985198
0.943235
4.05352
9.09831
23.6832
45.2551
16.5953
4.874
7.1049
0.663807
1.13396
1.49073
0.634207
0.0253062
0.160945
0.740802
2.42218
5.49633
10.4759
19.1407
28.9117
26.2482
7.35372
1.00706
5.72471
4.40745
3.49499
2.15901
0.421471
0.214697
0.497384
0.0763293
0.063826
0.14741
0.416377
1.00711
2.39497
5.97582
10.6967
7.11258
1.82856
1.02391
3.63812
2.03037
0.523227
0.0609749
0.0104582
0.0232958
0.0625587
0.0973836
0.00215473
0.0113959
0.0727427
0.278831
0.796798
0.882751
0.36484
0.21341
0.282547
0.580454
0.5066
0.254388
0.0750992
0.024904
0.0130577
0.0064165
0.00353417
0.00540688
0.00955694
0.0120561
0.0845719
0.254439
0.308439
0.284745
0.225016
0.188598
0.282197
3.00514e-05
0.000958254
0.0029485
0.00795865
0.0198283
0.0361663
0.0555068
0.0943181
0.204262
0.638656
2.06027
5.54113
9.54021
10.392
8.637
8.51536
9.07804
8.63211
7.17523
8.45197
17.9192
30.8052
26.5062
17.5988
15.0243
20.4149
37.963
57.8799
33.4149
10.7916
11.7862
5.9324
0.0994716
0.201442
0.248263
0.0201162
0.0979317
0.659571
3.08791
8.88311
21.2446
37.4027
44.1973
30.995
10.1013
2.82312
9.97251
4.74316
1.22542
1.24256
1.60287
0.742459
0.260412
0.271361
0.0605953
0.0852423
0.260566
0.825679
2.34622
5.22143
10.1111
9.24281
2.97805
0.702746
4.1515
2.63564
0.584998
0.105571
0.0195959
0.00938756
0.0216965
0.0683589
0.0373822
0.00207203
0.0250132
0.142292
0.490992
1.15849
0.821358
0.435731
0.345297
0.791673
1.17876
1.00992
0.471322
0.116657
0.0307628
0.0170793
0.00981826
0.00728361
0.00695659
0.0115638
0.0502221
0.26784
0.774178
1.04341
1.02221
0.890731
0.787454
1.02008
4.88183e-06
0.000167873
0.000689198
0.00229041
0.00675857
0.0172499
0.0403912
0.0810567
0.126183
0.207704
0.402197
0.790739
1.32559
1.78365
2.1514
2.7135
3.22602
3.49467
4.05501
6.2566
13.7924
33.9019
56.976
60.7468
56.8612
65.3119
70.8296
40.6718
11.8846
8.52149
18.0569
8.16231
0.161478
0.00729866
0.00345037
0.0320888
0.682843
3.2033
10.0209
25.4298
42.581
37.16
20.8681
9.05868
3.61393
10.1075
6.22533
0.260168
0.107928
0.117138
0.330677
0.486566
0.40432
0.2244
0.05422
0.130499
0.516368
1.80187
4.84231
9.03235
11.8595
4.60133
1.54274
2.38181
4.30512
0.816976
0.105444
0.0228457
0.0108314
0.0110555
0.0273212
0.0418785
0.00201601
0.00967041
0.068387
0.272791
0.857748
1.52706
0.739477
0.451763
0.579629
1.43481
1.86455
1.62919
0.846178
0.23539
0.0503865
0.0230282
0.0168027
0.0132667
0.0136942
0.0327688
0.177518
0.828093
2.19863
2.95528
2.96717
2.66909
2.31979
2.14507
2.12729e-05
0.000477503
0.00268157
0.0105444
0.0348448
0.0982408
0.23764
0.3466
0.346691
0.342746
0.372777
0.463332
0.621372
0.865064
1.17146
1.47808
1.65837
1.86797
2.39593
3.88525
8.90988
19.4225
35.8339
54.1268
63.1951
53.7506
28.3959
10.5369
4.89668
6.71891
20.2077
17.9509
2.12336
0.563561
0.450114
1.17531
3.9721
10.7606
27.6694
46.0082
30.0571
11.9207
5.70085
3.42396
6.24081
10.1316
1.25377
0.0230108
0.016556
0.0165884
0.0718881
0.254112
0.45289
0.127594
0.0422116
0.266067
1.15242
3.77582
8.39014
12.8855
8.538
2.30503
0.969808
4.53411
2.58536
0.190933
0.0272215
0.0104756
0.00907119
0.01442
0.0249184
0.00618666
0.00399802
0.0279593
0.149289
0.521176
1.47941
1.73162
0.649429
0.484353
1.14564
2.22706
2.55916
2.28167
1.47008
0.545495
0.111637
0.0360992
0.0268512
0.023818
0.0324852
0.106538
0.580236
2.31814
4.72847
5.50467
5.32683
4.5304
3.65081
2.01076
0.000900467
0.00920549
0.0429284
0.144363
0.4215
1.0206
1.50735
1.37119
1.19676
1.04879
1.00073
1.04418
1.17272
1.37728
1.54309
1.50626
1.36994
1.46763
1.75856
2.58769
5.01355
7.84545
10.4652
13.8899
15.7888
11.0379
5.14527
2.93486
2.61301
5.18995
18.534
30.4103
13.2515
5.91348
4.68793
6.96291
14.392
31.0498
52.1267
31.0027
8.60324
3.18547
2.00837
2.28429
8.51367
8.68829
0.318524
0.00767641
0.00622972
0.018423
0.0411516
0.274161
0.398824
0.00347427
0.0820928
0.658841
2.60754
6.75401
12.6751
12.8984
4.11972
1.42568
2.01204
4.63437
1.30919
0.0745536
0.0142466
0.00796569
0.00886308
0.0136157
0.0093311
0.0018598
0.0191905
0.0845529
0.308017
1.01646
2.34519
1.54966
0.60575
0.863491
2.02238
3.15092
3.32493
3.07749
2.42714
1.23804
0.308024
0.0770261
0.0474684
0.0474574
0.0857126
0.348333
1.76886
5.01199
6.90278
6.29612
5.32434
3.68599
2.35043
0.717651
0.060215
0.311179
0.926886
2.18048
4.02649
4.59597
3.78171
3.0628
2.58662
2.34899
2.35741
2.42245
2.52737
2.51406
2.21944
1.79846
1.57151
1.63347
1.86023
2.27703
2.9128
2.68198
2.11225
2.00261
1.9879
1.56794
1.18292
1.15345
1.53634
3.61503
14.3203
38.0734
36.5547
24.1764
19.6454
25.8775
43.5831
60.7309
34.2698
7.91161
2.117
1.3047
1.04102
2.11395
9.76626
9.47488
0.249698
0.00300636
0.00797528
0.0208182
0.0678068
0.257576
0.100429
0.00335228
0.264596
1.74036
5.2518
10.8725
14.9738
8.03355
2.04189
0.755511
2.97443
3.78536
0.778124
0.0502485
0.0104062
0.00734232
0.00808503
0.00773151
0.0055776
0.0205057
0.0558328
0.193211
0.642329
1.97889
3.05698
1.1543
0.823502
1.62033
3.18455
4.14936
4.27445
4.24384
3.80526
2.52617
0.893904
0.235742
0.11947
0.121927
0.268873
1.14679
4.40129
7.94966
6.38052
4.23824
2.34422
0.940234
0.340554
0.519569
3.39403
7.93126
12.3887
10.332
7.78712
5.33583
3.89604
3.32784
3.21661
3.35983
3.51086
3.52849
3.23462
2.7228
2.17562
1.8655
1.81943
1.98381
2.04656
1.783
1.31635
0.711236
0.404504
0.349863
0.349415
0.354379
0.394624
0.505124
0.796383
1.90832
8.09706
29.7096
58.7599
63.5206
59.341
68.5844
66.7047
33.6828
7.43691
1.66536
0.968304
0.786637
0.854447
2.06677
8.92947
13.9672
0.727304
0.00393275
0.00644452
0.0265319
0.0710147
0.0134577
0.00448319
0.0959431
1.06913
4.24043
9.29989
15.5615
12.3631
3.48072
1.28519
0.993674
3.50143
3.2537
0.752803
0.0532433
0.0114024
0.00740222
0.00757007
0.00994033
0.0270628
0.0545693
0.139477
0.434949
1.39921
3.45334
2.96636
1.03155
1.37508
2.72633
4.62596
5.03158
5.29627
5.61263
5.65581
4.52789
2.34646
0.819934
0.40788
0.415718
0.958505
3.41058
8.24804
8.68152
3.59263
1.51162
0.368083
0.150076
0.14012
1.80307
0.662056
2.93835
3.53345
2.64885
1.86893
1.43848
1.46685
1.67977
1.97088
2.15957
2.13066
1.96696
1.74277
1.53777
1.47947
1.51684
1.55798
1.41892
0.982774
0.5935
0.321115
0.160346
0.107958
0.103395
0.110254
0.131568
0.166215
0.227329
0.35963
0.790776
2.9569
11.9761
32.0687
51.6084
59.1383
45.8844
20.5412
5.26173
1.26542
0.727391
0.62435
0.594682
0.778856
1.97243
8.0689
18.0636
3.1035
0.00889265
0.00255076
0.00337842
0.00419186
0.0101754
0.104771
0.735977
3.38083
8.64449
15.8999
17.6877
6.69529
1.55583
0.875786
1.41603
3.45866
3.73993
1.61071
0.190826
0.0393849
0.0209758
0.0233027
0.0416833
0.0745698
0.136289
0.353334
1.06132
3.02297
4.77405
2.24376
1.38069
2.30894
4.44146
5.69438
5.65906
6.1087
6.69941
7.54405
7.31834
5.09793
2.61101
1.5283
1.58701
3.273
7.68041
11.5196
5.42494
1.44328
0.267758
0.222349
0.363872
2.06901
4.76451
0.000547828
0.00562943
0.0178324
0.0371481
0.0699744
0.112331
0.158911
0.223033
0.275485
0.307219
0.316321
0.321805
0.338163
0.361237
0.388203
0.387489
0.33738
0.245364
0.143751
0.0902847
0.0601562
0.0455235
0.0429661
0.0443906
0.0510359
0.0615585
0.0766806
0.102162
0.139837
0.250751
0.722199
2.09328
4.75574
7.34262
7.82521
4.3607
1.86972
0.739334
0.480124
0.424157
0.406344
0.439227
0.720278
1.84984
7.03158
21.2585
9.61872
0.17962
0.0550814
0.0318419
0.0450676
0.171153
0.839604
3.09558
8.24768
17.0772
22.2283
12.029
2.48326
0.916621
0.635267
1.46975
3.8888
6.11214
3.72095
0.932967
0.235346
0.11288
0.103401
0.136997
0.204807
0.408615
1.01182
2.73405
5.4767
4.77734
1.91786
2.16799
3.95133
6.06132
6.10232
5.90297
6.31786
6.93711
8.46049
10.086
9.26314
6.43872
4.75927
5.04418
8.21341
13.2045
9.26751
2.11447
0.617208
0.295436
1.19279
3.34862
5.25481
7.62119
1.48003e-06
2.80033e-05
0.000130985
0.000404812
0.000925651
0.00168107
0.00268262
0.00388267
0.0054583
0.00782026
0.0109796
0.0147266
0.0173451
0.0189917
0.0190036
0.0178853
0.0172303
0.0166965
0.0136282
0.0133118
0.0134004
0.013932
0.0151686
0.0172161
0.0204684
0.0243921
0.0290752
0.0344031
0.0366005
0.050506
0.109551
0.214648
0.281291
0.294169
0.387312
0.329561
0.253303
0.229691
0.216474
0.211678
0.225438
0.306564
0.617096
1.59671
5.3733
19.2745
21.5327
4.02318
0.704574
0.425985
0.655659
1.4897
4.00715
8.91978
18.7371
26.9953
16.8024
4.39222
1.00022
0.577897
0.642945
1.70336
4.67763
8.98926
7.54734
3.43826
1.35124
0.651549
0.50126
0.541645
0.768268
1.41695
3.02752
5.91158
7.31452
3.70799
2.40911
3.59542
6.00485
6.74342
5.87833
5.55541
5.61041
6.02408
7.62669
10.5755
13.2185
12.4194
10.7946
11.6179
15.2609
13.1048
3.9076
0.983888
0.717195
1.72112
4.31688
6.22436
7.63008
8.10956
7.8081e-09
1.32965e-07
8.21254e-07
3.24062e-06
8.77014e-06
1.78287e-05
3.29036e-05
5.68892e-05
9.64075e-05
0.000157503
0.000243613
0.000353425
0.000462905
0.000568554
0.000668656
0.000783246
0.000994447
0.00132797
0.00161786
0.0020447
0.00246213
0.00284975
0.00330445
0.00406705
0.00504138
0.00592987
0.00630377
0.00601849
0.00542187
0.00615765
0.010297
0.0158767
0.0180217
0.0253484
0.0402484
0.056202
0.0675901
0.0729756
0.0737205
0.0793989
0.102219
0.177775
0.395829
1.00528
3.0693
12.9187
32.3862
16.5742
5.73198
4.00589
4.49967
6.83303
13.1298
23.2948
32.0799
19.4778
5.42726
1.28078
0.61635
0.480356
0.853447
2.25703
5.59376
11.1103
12.9917
8.86855
5.36456
3.1541
2.41599
2.34949
2.9673
4.48367
7.06924
9.31664
6.62434
3.35982
3.75214
5.82436
7.25747
6.18623
5.08895
4.48869
4.10384
4.25382
5.36491
7.95605
12.3073
15.9602
17.1084
17.5029
14.7413
6.06925
1.53041
1.01333
2.02806
4.62462
6.21327
6.86478
7.72305
6.82801
1.79362e-11
2.79179e-09
9.87372e-09
4.18597e-08
1.11324e-07
2.33673e-07
4.90123e-07
1.01687e-06
2.08325e-06
3.8528e-06
6.64227e-06
1.06931e-05
1.57793e-05
2.28213e-05
3.21411e-05
4.43533e-05
6.37329e-05
9.43859e-05
0.000139614
0.00020393
0.000261399
0.000325315
0.000357861
0.000546404
0.000716688
0.000829328
0.000783102
0.000667135
0.000656628
0.000789843
0.00102805
0.00131066
0.00186214
0.00384538
0.00922672
0.0135472
0.0153467
0.0161285
0.0177322
0.0217655
0.0345085
0.0719153
0.163898
0.412006
1.23823
6.03087
25.5091
37.9229
23.187
18.0676
17.8883
23.2318
35.4861
36.385
19.726
4.92801
1.24586
0.644959
0.498489
0.631973
1.29645
2.7003
5.40375
10.0106
15.5708
16.6981
13.1235
9.14457
7.69824
7.167
8.04889
9.92909
11.7571
9.69121
5.38399
4.53902
6.08339
7.50449
6.52083
4.77237
3.66529
2.83329
2.32616
2.29883
2.81087
4.21857
6.98933
10.7214
12.9429
11.4326
6.18922
2.16977
1.50817
2.18875
4.08849
5.59875
6.08933
6.14088
6.3357
4.93358
1.38622e-11
1.31519e-10
4.80344e-10
1.39932e-09
2.88307e-09
5.09483e-09
7.59673e-09
1.7743e-08
3.6567e-08
7.3101e-08
1.35441e-07
2.37141e-07
3.799e-07
6.31687e-07
1.0616e-06
1.75588e-06
3.07394e-06
5.4491e-06
9.16653e-06
1.56033e-05
1.75659e-05
3.28876e-05
5.4982e-05
0.000114156
0.000265054
0.000587205
0.0010927
0.00156166
0.00177714
0.00164666
0.00115116
0.000646879
0.000472673
0.0012647
0.00282497
0.00308102
0.00277031
0.0030718
0.00404182
0.00554726
0.00898714
0.0191018
0.0435522
0.116417
0.358921
1.70956
8.9839
29.8458
44.9111
45.3297
43.4584
42.6577
30.7308
13.8436
3.59649
0.931737
0.559058
0.485599
0.537897
0.936003
1.54155
2.38865
3.9612
7.00202
12.7484
18.8054
19.8167
17.5592
16.0632
14.8016
15.267
15.1037
12.5766
8.22517
6.22302
6.89369
7.68295
6.51046
4.33894
2.88989
1.94902
1.32975
1.03404
0.974784
1.14545
1.62508
2.59123
3.94082
4.66001
3.88643
2.38256
1.9815
2.71754
3.92905
4.63499
4.80294
4.81556
4.73676
4.31395
2.92777
5.78588e-13
4.51697e-12
7.51476e-12
5.40514e-11
1.08595e-10
1.76199e-10
2.50045e-10
4.7286e-10
8.27885e-10
1.49356e-09
2.4419e-09
3.75154e-09
7.95019e-09
1.6879e-08
3.31525e-08
6.89931e-08
1.45158e-07
3.28384e-07
6.72729e-07
1.8427e-06
5.81055e-06
2.45865e-05
0.000100345
0.000341976
0.000965824
0.00206946
0.00301335
0.00296977
0.00230041
0.00139661
0.000669733
0.000198851
0.000478447
0.00109225
0.00130025
0.00101874
0.00118897
0.00182428
0.00274885
0.00351801
0.0037045
0.004842
0.00880601
0.0245128
0.078035
0.319791
1.33524
5.89734
15.3746
20.154
19.8523
12.9337
4.60411
1.5995
0.583326
0.382182
0.367628
0.400123
0.597621
0.922728
1.12282
1.4019
2.04021
3.48151
7.26988
12.768
17.4965
20.2482
20.566
19.6749
18.2964
14.9643
10.9894
8.43054
7.78015
7.21338
5.54877
3.45135
2.02695
1.22769
0.745646
0.493219
0.391268
0.396279
0.491802
0.684744
1.04648
1.53219
1.96856
2.2918
2.66975
3.24723
3.75859
3.84591
3.52915
3.38751
3.1152
2.95375
2.18035
1.4306
9.97147e-15
1.14703e-13
4.08668e-13
1.14718e-12
2.55123e-12
1.66603e-12
2.17117e-11
1.8352e-11
3.19806e-11
4.06266e-11
5.08667e-11
8.6235e-11
2.1992e-10
6.16548e-10
1.23963e-09
2.82274e-09
7.25666e-09
2.15679e-08
1.1336e-07
8.52344e-07
7.23359e-06
4.34229e-05
0.000187056
0.000619919
0.00153746
0.00251188
0.002408
0.00160153
0.000933193
0.000370725
0.000138765
0.000568083
0.00114244
0.00111886
0.00082899
0.000891651
0.00192084
0.00406104
0.00615247
0.0054816
0.0033907
0.00281496
0.00290842
0.00562443
0.0177553
0.0560959
0.161095
0.512719
1.15349
1.30782
1.32118
0.925819
0.384531
0.256146
0.20316
0.194656
0.208312
0.274947
0.389023
0.44437
0.434802
0.481764
0.64035
1.04438
2.24279
4.3787
7.81401
12.0376
14.0751
14.6387
12.8266
10.1735
7.86742
6.15364
4.70417
3.2381
1.95
1.11022
0.623834
0.36591
0.228102
0.173181
0.176097
0.239836
0.379094
0.615609
1.02941
1.60982
2.27933
2.91761
3.17804
3.01356
2.48865
2.15112
1.81948
1.67145
1.31203
1.19298
0.764904
0.530353
8.82365e-17
8.88898e-16
1.33512e-14
1.31632e-14
3.00112e-14
1.19648e-13
3.87451e-13
6.82813e-13
1.19524e-12
1.80129e-12
1.06382e-12
4.8308e-12
2.31985e-11
2.49059e-11
5.71147e-11
2.84669e-10
1.56239e-09
1.14692e-08
1.08806e-07
1.04697e-06
9.23287e-06
5.69505e-05
0.000254899
0.000833208
0.00175739
0.00199791
0.00119952
0.000553643
0.000157854
0.0001138
0.00068898
0.0014017
0.00115223
0.000842073
0.000814595
0.00197424
0.00508144
0.00911484
0.00980706
0.00593621
0.00302546
0.0019578
0.00170894
0.00394784
0.0122497
0.0247262
0.042751
0.0737389
0.110718
0.11521
0.117516
0.102392
0.0800144
0.0794235
0.0768262
0.0731074
0.0815402
0.106129
0.113277
0.0971488
0.0852444
0.08617
0.103303
0.150017
0.304189
0.56508
1.07547
1.94845
2.60599
3.14513
2.89755
2.52876
2.01106
1.47198
1.01012
0.663649
0.410025
0.24984
0.151696
0.102611
0.0813122
0.0915871
0.15697
0.287937
0.493341
0.786982
1.14799
1.46542
1.60152
1.51104
1.1924
0.944746
0.693463
0.583432
0.450333
0.386212
0.280656
0.255591
0.178754
0.152321
3.66668e-18
2.11998e-17
7.2331e-17
3.8186e-16
5.26027e-15
5.29496e-15
1.20081e-14
3.34917e-14
8.92883e-14
1.36076e-13
4.27547e-13
1.26287e-12
5.16418e-12
2.24256e-11
3.4824e-11
1.07913e-10
1.17255e-09
8.48874e-09
8.29767e-08
7.91344e-07
7.64087e-06
5.59022e-05
0.000280976
0.000959176
0.00188818
0.00173138
0.000800444
0.00024136
0.000157181
0.000551399
0.00133075
0.0012178
0.000712052
0.000628569
0.00153362
0.00471655
0.0097344
0.0121369
0.00759223
0.00270903
0.00143384
0.00105339
0.00234293
0.00998362
0.0193061
0.0248117
0.0286219
0.0319891
0.0338424
0.0305397
0.0310189
0.0313414
0.0271168
0.0272352
0.025287
0.0215108
0.0215635
0.0213531
0.0170818
0.0109626
0.00986109
0.00927188
0.0100137
0.00931342
0.0103571
0.0112186
0.0164249
0.0363217
0.0740243
0.143511
0.203913
0.236886
0.207435
0.165501
0.128507
0.0992094
0.0726522
0.0544048
0.0438726
0.0389747
0.0504323
0.098181
0.201863
0.316596
0.371697
0.382496
0.329657
0.273978
0.219411
0.165475
0.118024
0.0963539
0.073212
0.0606755
0.0444543
0.0382453
0.0311771
0.0324433
0.0324149
0.0456817
7.42102e-20
5.26711e-19
7.3052e-18
1.16573e-17
1.23583e-16
1.85994e-16
1.1295e-15
4.32426e-15
5.97662e-15
4.71674e-14
5.90484e-14
8.40234e-13
4.19371e-12
1.79163e-12
1.06654e-11
1.14333e-10
7.06226e-10
7.42356e-09
7.02022e-08
6.81925e-07
6.69385e-06
5.35753e-05
0.000282925
0.000978536
0.00185707
0.00163493
0.000758632
0.00028367
0.000423838
0.000984165