/*--------------------------------*- C++ -*----------------------------------*\
| =========                 |                                                 |
| \\      /  F ield         | OpenFOAM: The Open Source CFD Toolbox           |
|  \\    /   O peration     | Version:  2.3.0                                 |
|   \\  /    A nd           | Web:      www.OpenFOAM.org                      |
|    \\/     M anipulation  |                                                 |
\*---------------------------------------------------------------------------*/
FoamFile
{
    version     2.0;
    format      ascii;
    class       volScalarField;
    location    "0.05";
    object      O2;
}
// * * * * * * * * * * * * * * * * * * * * * * * * * * * * * * * * * * * * * //

dimensions      [0 0 0 0 0 0 0];

internalField   nonuniform List<scalar> 
5000
(
0.197
0.197
0.197
0.197
0.197
0.197
0.197
0.197
0.197
0.197
0.197
0.197
0.197
0.197
0.197
0.197
0.197
0.197
0.197
0.197
0.197
0.197
0.197
0.197
0.197
0.197
0.197
0.197
0.197
0.197
0.197
0.197
0.197
0.197
0.197
0.197
0.197
0.197
0.197
0.197
0.197
0.196999
0.196999
0.196998
0.196996
0.196995
0.196994
0.196994
0.196995
0.196997
0.196998
0.196998
0.196999
0.196999
0.196999
0.197
0.197
0.197
0.197
0.197
0.197
0.197
0.197
0.197
0.197
0.196999
0.196999
0.196999
0.196998
0.196998
0.196998
0.196997
0.196995
0.196987
0.196959
0.196874
0.196692
0.196383
0.195922
0.195205
0.194123
0.192976
0.191713
0.190125
0.188056
0.185288
0.181904
0.178175
0.17443
0.170873
0.166406
0.158351
0.152715
0.153037
0.146442
0.0943582
0.00117811
0.221716
0.232749
0.232994
0.197
0.197
0.197
0.197
0.197
0.197
0.197
0.197
0.197
0.197
0.197
0.197
0.197
0.197
0.197
0.197
0.197
0.197
0.197
0.197
0.197
0.197
0.197
0.197
0.197
0.197
0.197
0.197
0.197
0.197
0.197
0.197
0.197
0.197
0.197
0.197
0.197
0.197
0.197
0.196999
0.196998
0.196996
0.196989
0.196976
0.196954
0.196924
0.196902
0.196907
0.19693
0.196954
0.19697
0.196982
0.196989
0.196993
0.196996
0.196998
0.196999
0.196999
0.196999
0.196999
0.197
0.197
0.196999
0.196999
0.196999
0.196998
0.196995
0.19699
0.196983
0.196979
0.196981
0.196984
0.196981
0.196967
0.196928
0.19679
0.196453
0.195855
0.194748
0.193249
0.191798
0.19011
0.188036
0.185338
0.181947
0.177773
0.172814
0.167354
0.161647
0.155713
0.147533
0.133357
0.122281
0.127835
0.129276
0.0789447
0.000897429
0.22339
0.232779
0.232995
0.197
0.197
0.197
0.197
0.197
0.197
0.197
0.197
0.197
0.197
0.197
0.197
0.197
0.197
0.197
0.197
0.197
0.197
0.197
0.197
0.197
0.197
0.197
0.197
0.197
0.197
0.197
0.197
0.197
0.197
0.197
0.197
0.197
0.197
0.197
0.197
0.197
0.196999
0.196999
0.196998
0.196994
0.196981
0.196938
0.196806
0.196506
0.196024
0.195519
0.195575
0.195946
0.196322
0.196587
0.196754
0.196856
0.196916
0.196951
0.196971
0.196984
0.196991
0.196995
0.196997
0.196998
0.196998
0.196998
0.196996
0.196991
0.19698
0.19695
0.196886
0.196772
0.196687
0.19674
0.196825
0.196877
0.196891
0.196843
0.196632
0.196041
0.194759
0.192864
0.190861
0.188472
0.185594
0.182148
0.178046
0.173124
0.167322
0.160597
0.153102
0.144949
0.135971
0.123389
0.103193
0.087059
0.0944308
0.108132
0.0592951
0.00528742
0.225945
0.232822
0.232996
0.197
0.197
0.197
0.197
0.197
0.197
0.197
0.197
0.197
0.197
0.197
0.197
0.197
0.197
0.197
0.197
0.197
0.197
0.197
0.197
0.197
0.197
0.197
0.197
0.197
0.197
0.197
0.197
0.197
0.197
0.197
0.197
0.197
0.196999
0.196999
0.196998
0.196998
0.196998
0.196997
0.196992
0.196982
0.196939
0.196792
0.19632
0.194856
0.191745
0.187281
0.184328
0.185443
0.189211
0.192286
0.194204
0.195583
0.196224
0.196572
0.196749
0.196849
0.196914
0.196954
0.196976
0.196985
0.196989
0.196987
0.196981
0.196964
0.196917
0.196776
0.196358
0.194888
0.192603
0.193148
0.194631
0.195712
0.196308
0.196566
0.19635
0.195527
0.193423
0.19114
0.188274
0.18478
0.180729
0.176063
0.170587
0.164168
0.15675
0.14826
0.139032
0.128868
0.116651
0.0989836
0.0735618
0.0576694
0.0674293
0.088546
0.0417749
0.0243878
0.227606
0.232851
0.232996
0.197
0.197
0.197
0.197
0.197
0.197
0.197
0.197
0.197
0.197
0.197
0.197
0.197
0.197
0.197
0.197
0.197
0.197
0.197
0.197
0.197
0.197
0.197
0.197
0.197
0.197
0.197
0.197
0.197
0.196999
0.196999
0.196999
0.196998
0.196994
0.196987
0.196978
0.196977
0.196981
0.196981
0.196972
0.196944
0.196819
0.196398
0.194993
0.191841
0.18679
0.178268
0.166985
0.159447
0.160195
0.165721
0.176838
0.18634
0.190708
0.192893
0.194584
0.195838
0.196424
0.1967
0.196829
0.196896
0.196933
0.196942
0.196929
0.19688
0.196731
0.196282
0.194689
0.190662
0.18193
0.1758
0.178949
0.187144
0.193163
0.195876
0.19582
0.194735
0.192406
0.189448
0.185594
0.181046
0.175946
0.170114
0.1633
0.155435
0.146387
0.136569
0.125869
0.113619
0.0979672
0.0749265
0.0473909
0.0399624
0.0519814
0.0728954
0.0298352
0.0593626
0.228928
0.232878
0.232997
0.197
0.197
0.197
0.197
0.197
0.197
0.197
0.197
0.197
0.197
0.197
0.197
0.197
0.197
0.197
0.197
0.196999
0.196999
0.196999
0.196999
0.196999
0.196999
0.196999
0.196999
0.196999
0.196998
0.196997
0.196995
0.196994
0.196994
0.196993
0.196988
0.196974
0.196938
0.19686
0.196735
0.196725
0.196794
0.196844
0.196865
0.196826
0.196613
0.195845
0.19325
0.189325
0.18247
0.171928
0.15758
0.140548
0.126853
0.125046
0.128227
0.135813
0.149191
0.16755
0.182696
0.18976
0.192687
0.19447
0.195698
0.196286
0.196607
0.19677
0.196755
0.19663
0.196208
0.194926
0.191925
0.186091
0.173601
0.15295
0.147585
0.158492
0.182282
0.193493
0.194713
0.193703
0.191398
0.18775
0.18284
0.177288
0.171148
0.164172
0.156069
0.146668
0.136375
0.125215
0.113069
0.0988339
0.0795196
0.0525774
0.0311699
0.0317531
0.0487731
0.0608474
0.023637
0.101049
0.229889
0.232903
0.232997
0.197
0.197
0.197
0.197
0.197
0.197
0.197
0.196999
0.196999
0.196999
0.196998
0.196997
0.196996
0.196995
0.196995
0.196994
0.196991
0.196985
0.196976
0.196971
0.196977
0.196983
0.196987
0.196988
0.196984
0.196972
0.196949
0.19692
0.196902
0.196909
0.196913
0.196892
0.196827
0.196684
0.196283
0.194502
0.193702
0.194648
0.19552
0.196026
0.19637
0.196207
0.194999
0.191849
0.186792
0.178294
0.165772
0.148551
0.127793
0.106574
0.0943293
0.0939929
0.0973593
0.106947
0.121777
0.136762
0.150254
0.164548
0.179057
0.188105
0.191979
0.194877
0.196229
0.196235
0.195925
0.194799
0.192438
0.188508
0.180487
0.165389
0.139391
0.11416
0.119342
0.152005
0.186622
0.192866
0.192456
0.190212
0.185856
0.179947
0.173345
0.166187
0.158092
0.148542
0.137883
0.126247
0.113695
0.100188
0.0838517
0.0615879
0.0340666
0.0255459
0.0315598
0.0554501
0.0532947
0.0217937
0.141128
0.230696
0.232927
0.232998
0.196999
0.196998
0.196996
0.196994
0.196992
0.19699
0.196989
0.196987
0.196981
0.196967
0.196944
0.196915
0.196895
0.196888
0.196881
0.196861
0.196808
0.196698
0.196523
0.196354
0.196407
0.196577
0.196704
0.19678
0.196785
0.19669
0.196494
0.196134
0.195752
0.195819
0.196009
0.196111
0.196032
0.195689
0.194294
0.189775
0.181403
0.181276
0.185289
0.190534
0.194403
0.19507
0.193632
0.190319
0.183915
0.173549
0.158567
0.138115
0.113775
0.0889192
0.0742417
0.0733933
0.0763426
0.0842626
0.0936579
0.0992067
0.10383
0.109675
0.119128
0.136138
0.169365
0.189668
0.194377
0.19455
0.193803
0.192132
0.189072
0.183351
0.172807
0.153519
0.123205
0.0853349
0.0818699
0.110737
0.168169
0.189806
0.190552
0.188634
0.183747
0.176835
0.169145
0.160865
0.151506
0.140695
0.128708
0.115572
0.101635
0.0866262
0.0686845
0.0442966
0.0238969
0.0262813
0.0466123
0.0657953
0.0488684
0.0200707
0.17201
0.231375
0.232949
0.232999
0.196966
0.196892
0.196775
0.196653
0.196603
0.196607
0.196604
0.196552
0.196393
0.196063
0.195469
0.194547
0.193982
0.194061
0.194228
0.194232
0.193761
0.192713
0.190653
0.186964
0.184359
0.187699
0.190771
0.192848
0.194421
0.194872
0.19407
0.191487
0.185961
0.184035
0.186131
0.188623
0.190541
0.191298
0.189708
0.18243
0.16385
0.146415
0.151496
0.17008
0.188408
0.192842
0.192
0.188434
0.180677
0.16822
0.149991
0.125933
0.0977898
0.0714371
0.0599608
0.0601272
0.0641409
0.0676712
0.0692325
0.0676388
0.064957
0.065751
0.069737
0.0816587
0.112059
0.164599
0.189337
0.190891
0.190195
0.188016
0.183521
0.175662
0.161703
0.13638
0.100599
0.0594085
0.0483792
0.0688439
0.135276
0.182485
0.187863
0.186295
0.181254
0.173413
0.164506
0.155039
0.144362
0.132304
0.118756
0.104037
0.0884771
0.07241
0.0533936
0.0294855
0.0216249
0.0339115
0.0713725
0.0739948
0.0439849
0.00959616
0.195373
0.231966
0.232968
0.232999
0.195497
0.192549
0.189198
0.185337
0.183173
0.183806
0.185495
0.18614
0.184622
0.180732
0.173266
0.163604
0.156199
0.156068
0.15838
0.165322
0.170673
0.169562
0.161965
0.140557
0.120585
0.121575
0.136153
0.160097
0.185969
0.189716
0.188122
0.181152
0.16391
0.139815
0.137833
0.144427
0.163818
0.179439
0.178973
0.170267
0.145772
0.108466
0.104486
0.122542
0.165446
0.188764
0.189203
0.185737
0.176758
0.161673
0.139506
0.111045
0.0792927
0.0544762
0.0473669
0.0482614
0.0497426
0.0498016
0.047105
0.0417483
0.0364191
0.0351523
0.0357117
0.0413319
0.0670589
0.128497
0.176868
0.183882
0.183251
0.180629
0.174818
0.164232
0.145389
0.113786
0.0733384
0.0370921
0.0312931
0.0419704
0.0945302
0.163815
0.183497
0.182868
0.178155
0.169582
0.159387
0.148471
0.136579
0.12301
0.107768
0.0911599
0.0742556
0.0576147
0.0386638
0.0199991
0.0204034
0.0486226
0.0879646
0.0786936
0.0384012
0.00250956
0.212462
0.232426
0.232983
0.233
0.084248
0.0972216
0.0861232
0.0634951
0.0555245
0.0732086
0.117091
0.142506
0.142139
0.136014
0.117949
0.0902882
0.0716895
0.0733025
0.0827062
0.109205
0.122653
0.122632
0.118408
0.0877115
0.0496542
0.0449302
0.0553413
0.0914125
0.151171
0.17667
0.174792
0.163016
0.13448
0.09959
0.0873284
0.0899583
0.108687
0.148983
0.15604
0.145469
0.116259
0.0745817
0.0542628
0.0689767
0.120673
0.17604
0.184498
0.18151
0.171628
0.153357
0.126566
0.0932116
0.0598993
0.039513
0.0348524
0.0353498
0.0358033
0.0341262
0.0293504
0.0232213
0.019121
0.0181692
0.017984
0.021632
0.0420955
0.102614
0.158706
0.172085
0.171828
0.169054
0.161498
0.146716
0.122309
0.0852544
0.0483356
0.0308572
0.028483
0.0332533
0.0590614
0.135363
0.176792
0.17829
0.174225
0.165045
0.153486
0.141137
0.127834
0.112561
0.0953754
0.076883
0.0591914
0.0427988
0.0258516
0.0148122
0.0192758
0.0638769
0.0959331
0.078326
0.0339402
0.0225776
0.223347
0.232712
0.232992
0.233
0.0101068
0.0057834
0.00451369
0.00293209
0.00252501
0.0115491
0.0500955
0.0819177
0.0836822
0.0754046
0.0500021
0.0221007
0.0118676
0.0132167
0.0251713
0.0529839
0.0704527
0.0703498
0.0592705
0.0285833
0.00772598
0.0062696
0.0115809
0.0477402
0.126478
0.156602
0.153381
0.134577
0.100963
0.0676147
0.0439839
0.044223
0.0683751
0.117617
0.123082
0.110829
0.0821957
0.0312241
0.0164824
0.0224415
0.0698407
0.150614
0.17707
0.175122
0.164481
0.142404
0.110474
0.0729174
0.0420823
0.0274912
0.0247802
0.0250024
0.0244987
0.0208089
0.0151595
0.0109982
0.00920259
0.00883815
0.00927532
0.0130528
0.0297191
0.0836723
0.137122
0.15461
0.154959
0.15169
0.141224
0.121242
0.0916048
0.0494738
0.0369946
0.045622
0.0453804
0.0413913
0.0527609
0.110403
0.167926
0.173105
0.169339
0.159505
0.146465
0.132761
0.117787
0.100683
0.0813496
0.0615277
0.0438593
0.0297831
0.0163004
0.0113521
0.0176409
0.0756791
0.0969939
0.0724762
0.0367256
0.104582
0.22886
0.232866
0.232996
0.233
0.0234785
0.0170437
0.0151165
0.0113303
0.00535643
0.0013192
0.00479975
0.0147769
0.0171828
0.0126463
0.00449601
0.00123144
0.000862584
0.000967794
0.00338041
0.0119542
0.0191211
0.018499
0.0108191
0.00218235
0.000905676
0.00213242
0.0163221
0.0606262
0.114853
0.128998
0.122489
0.101523
0.0719702
0.0290848
0.0169873
0.0223758
0.0516937
0.0886278
0.0917204
0.0784277
0.0330492
0.00678603
0.0125016
0.0172324
0.0412002
0.127976
0.167668
0.166491
0.15439
0.128044
0.0907847
0.0526981
0.0286376
0.0190741
0.0167725
0.0156384
0.0129821
0.00897132
0.00576385
0.00423183
0.00382807
0.00378442
0.00458625
0.00822872
0.021869
0.0628243
0.109303
0.129659
0.131186
0.127126
0.113226
0.0889662
0.0524528
0.0302739
0.0458437
0.0752393
0.0741269
0.0609272
0.0643335
0.104208
0.160717
0.167646
0.163536
0.15252
0.138086
0.12284
0.106096
0.0868574
0.06595
0.045775
0.0305136
0.0196131
0.0101245
0.0083772
0.0170159
0.0824105
0.0941501
0.0607405
0.0297339
0.176701
0.231197
0.23294
0.232998
0.233
0.0287396
0.0260841
0.0238727
0.0199529
0.0136913
0.00780735
0.00400833
0.00246243
0.00230682
0.00262393
0.00382058
0.00428603
0.0036936
0.0022403
0.00117568
0.00112126
0.00134021
0.00126399
0.000973239
0.000679654
0.000390016
0.00122755
0.0164938
0.0611942
0.0928176
0.0966462
0.0924885
0.0698733
0.0291181
0.00635203
0.00482511
0.0102456
0.037144
0.0534014
0.0498932
0.0269974
0.00844648
0.0112696
0.05585
0.0586944
0.0638228
0.121509
0.157986
0.156064
0.140477
0.10908
0.0688507
0.0366034
0.0187316
0.011299
0.00856826
0.00655672
0.00443611
0.0027006
0.0017485
0.00137733
0.00131953
0.00140687
0.00203039
0.0045178
0.0148746
0.043513
0.0779827
0.098364
0.100949
0.096079
0.0807818
0.0529349
0.0238184
0.0241911
0.0779092
0.106336
0.102506
0.0844568
0.0812355
0.111858
0.157144
0.162008
0.156782
0.143706
0.12779
0.110892
0.092201
0.0712508
0.0498589
0.0317626
0.0202056
0.0124388
0.00620411
0.00586657
0.0166934
0.0862006
0.0885853
0.0461795
0.00525773
0.211398
0.232239
0.232973
0.232999
0.233
0.029755
0.0291902
0.0282453
0.0261969
0.0228334
0.0185066
0.0151937
0.0135801
0.0133139
0.0138162
0.0148196
0.0149602
0.0137813
0.0110188
0.00829902
0.00673559
0.00591833
0.00554331
0.00486701
0.00347054
0.00137705
0.000529601
0.00626125
0.0359856
0.0591679
0.0616269
0.0512375
0.0263436
0.00486848
0.000882953
0.000891408
0.00234976
0.00974337
0.0137871
0.0106935
0.00444512
0.00360641
0.0288463
0.0882334
0.100216
0.102586
0.130999
0.148955
0.143567
0.12209
0.0855865
0.0493459
0.0238358
0.00951516
0.00467621
0.00286127
0.00180071
0.00107393
0.000658259
0.000480775
0.000422877
0.000416455
0.000466452
0.000749735
0.00190896
0.00742407
0.0268915
0.0515852
0.0673281
0.0697997
0.0654999
0.0501464
0.0214234
0.0127629
0.034995
0.110007
0.128697
0.123411
0.105854
0.10225
0.12449
0.154989
0.156279
0.14843
0.132705
0.114893
0.0963206
0.0759065
0.0543877
0.0348509
0.0210413
0.0129572
0.00711184
0.00365554
0.00351313
0.017563
0.0881289
0.0810401
0.0356296
0.0482135
0.224842
0.232659
0.232987
0.233
0.233
0.0299433
0.0299741
0.0300573
0.0300409
0.0296539
0.0287467
0.0279216
0.0277632
0.0282837
0.0295409
0.0312032
0.0316954
0.0307799
0.0281478
0.0251814
0.0228946
0.0210172
0.019088
0.0167803
0.012907
0.00701264
0.00215872
0.00107238
0.00776477
0.0173906
0.019065
0.0124222
0.00300265
0.00108429
0.00133992
0.00123344
0.000906882
0.00105908
0.00119141
0.000795135
0.000711839
0.00390873
0.0370558
0.104136
0.128532
0.133557
0.140172
0.140005
0.127131
0.0980007
0.0625296
0.033643
0.0110012
0.00321247
0.00128539
0.000682315
0.000467908
0.000418821
0.000460005
0.000494584
0.000486306
0.000437275
0.000354457
0.000326439
0.000614942
0.00247145
0.0107055
0.027942
0.0420648
0.0438928
0.0383409
0.0200386
0.00819356
0.00834696
0.0533251
0.130446
0.142818
0.13799
0.1239
0.122119
0.137604
0.152532
0.150146
0.13784
0.118528
0.0987327
0.0786627
0.0578622
0.0382234
0.023213
0.0133805
0.00744277
0.0034549
0.00203168
0.00249167
0.0212545
0.0887573
0.0719457
0.0319016
0.129182
0.229012
0.232814
0.232992
0.233
0.233
0.0301196
0.0307644
0.0321681
0.0342054
0.03644
0.0385772
0.0407037
0.0428326
0.0451954
0.0480317
0.0507185
0.0518035
0.0515413
0.0501193
0.0479549
0.045851
0.0436728
0.0410856
0.0375865
0.032022
0.0231685
0.0129414
0.00498517
0.00176284
0.0016911
0.00178658
0.00191502
0.00422263
0.00790789
0.00917003
0.00884679
0.0071661
0.00493146
0.00289293
0.00123129
0.000386899
0.00275298
0.0379608
0.096957
0.128497
0.134183
0.134502
0.125755
0.103368
0.0726733
0.0448975
0.0155782
0.00307207
0.000750691
0.000477218
0.000662989
0.0010073
0.00142981
0.00179826
0.00188725
0.00179136
0.00150362
0.00107588
0.000625775
0.000363172
0.000614998
0.00254506
0.00833056
0.0161822
0.0170466
0.0122762
0.0055707
0.00355017
0.00859121
0.0614626
0.139206
0.151392
0.148708
0.140034
0.139291
0.147123
0.149319
0.142479
0.123953
0.100338
0.0788055
0.0589104
0.0404697
0.0254849
0.0147331
0.00744625
0.00356544
0.0014678
0.00103511
0.00187521
0.0284436
0.0877114
0.061593
0.0243482
0.167164
0.230551
0.232886
0.232995
0.233
0.233
0.0307354
0.0334435
0.037698
0.0429882
0.0484615
0.0535081
0.058153
0.0623562
0.0662748
0.0700027
0.0729525
0.0741908
0.0742663
0.0737691
0.07277
0.0715866
0.0699444
0.0676482
0.064244
0.0587324
0.049696
0.0377419
0.0260361
0.0175393
0.0140228
0.0140178
0.0178745
0.0235386
0.0280243
0.0297207
0.0290192
0.0255743
0.0196527
0.0123233
0.00533511
0.00121132
0.00109391
0.0258961
0.0777174
0.11097
0.120559
0.116789
0.101207
0.0772322
0.0538496
0.0206884
0.00379603
0.000654246
0.000855928
0.00197854
0.0033796
0.00479745
0.00615983
0.00682761
0.00675062
0.00615773
0.00497064
0.00357311
0.00217453
0.00103325
0.000467323
0.00051408
0.00148726
0.00321416
0.00347434
0.00244781
0.00152125
0.00178862
0.00883688
0.0610839
0.139273
0.154993
0.154921
0.1524
0.150302
0.149505
0.145457
0.131679
0.10577
0.0780694
0.057181
0.0404957
0.0268743
0.0160697
0.00799041
0.00338338
0.00141752
0.000594349
0.000504163
0.0017704
0.0381881
0.0847292
0.0507014
0.0108431
0.190493
0.231465
0.232932
0.232997
0.233
0.233
0.034199
0.0437992
0.0551913
0.0648302
0.0728347
0.0795817
0.0853856
0.0900504
0.0937745
0.0966415
0.0984032
0.0988752
0.0989017
0.0987517
0.0984616
0.0980161
0.0971135
0.0954983
0.0926909
0.0881107
0.0808114
0.0709542
0.0603618
0.0517907
0.0479392
0.0476067
0.0505271
0.0549547
0.0584987
0.0595185
0.0581383
0.0529139
0.0436356
0.0308146
0.0171458
0.0059626
0.000784346
0.00878799
0.055044
0.0848268
0.0926513
0.089017
0.0761453
0.0576464
0.0238642
0.00496145
0.000779044
0.00193544
0.00528544
0.00933495
0.0127771
0.015535
0.0176035
0.017969
0.0172004
0.0151627
0.0124671
0.00936045
0.00608035
0.00321639
0.00149072
0.000655302
0.000410827
0.000528141
0.000600969
0.000529155
0.000542273
0.00128593
0.007631
0.0485995
0.127755
0.154613
0.156586
0.15576
0.152951
0.148184
0.137026
0.115235
0.0829693
0.0551568
0.0385895
0.0266152
0.0164152
0.00831331
0.00340863
0.00126486
0.000484913
0.000250596
0.000233704
0.00251098
0.0479303
0.0794788
0.0404212
0.00305489
0.20784
0.232103
0.232962
0.232999
0.233
0.233
0.0557426
0.0827006
0.0999588
0.108439
0.114438
0.11943
0.12346
0.126054
0.127294
0.127371
0.127092
0.126404
0.125889
0.12569
0.125576
0.125315
0.124601
0.123151
0.120572
0.11673
0.11117
0.104158
0.0970046
0.0908654
0.0875091
0.0866203
0.0877845
0.0898112
0.0913931
0.0914037
0.0892127
0.0831331
0.0724799
0.0572325
0.0397986
0.0217066
0.00555329
0.00159785
0.0206487
0.0547095
0.0695332
0.065742
0.0476039
0.0225987
0.00538079
0.00110136
0.00425028
0.0115964
0.0196995
0.0265894
0.0308398
0.0339665
0.0355042
0.0348721
0.0322664
0.0281208
0.0235142
0.0183853
0.0129098
0.00777038
0.00423472
0.00206734
0.000908255
0.000460474
0.000290789
0.00022427
0.00030511
0.00101415
0.00593251
0.0362305
0.108213
0.145093
0.151385
0.15168
0.14925
0.141188
0.122798
0.0938941
0.0593235
0.0370677
0.0241772
0.0145707
0.00749498
0.00319348
0.00116017
0.000413836
0.000175971
0.000127342
0.000174879
0.00430476
0.0559021
0.0725857
0.032213
0.00709298
0.219214
0.232497
0.232979
0.232999
0.233
0.233
0.218218
0.201869
0.187012
0.175168
0.170846
0.169357
0.168137
0.166262
0.1637
0.160785
0.1582
0.156281
0.155242
0.154693
0.154244
0.153603
0.152507
0.150755
0.148111
0.144714
0.140367
0.135335
0.130363
0.126025
0.123276
0.122066
0.122155
0.12272
0.123206
0.122776
0.120301
0.114356
0.104046
0.089719
0.0728809
0.0525348
0.0267441
0.00510195
0.00293009
0.016883
0.0268743
0.0246606
0.0139405
0.00357777
0.00203659
0.00971732
0.0227024
0.0356668
0.0457585
0.0525347
0.0557907
0.0576719
0.0574237
0.054799
0.0496236
0.0432468
0.0365863
0.0294583
0.0218344
0.0148222
0.00922211
0.00521113
0.00252208
0.00118642
0.000584965
0.000311663
0.000239651
0.00063848
0.00362131
0.0255491
0.0809641
0.124302
0.136108
0.139169
0.137154
0.125967
0.101607
0.0689202
0.0398654
0.0203314
0.0100102
0.00493987
0.00225359
0.000894001
0.000327247
0.00014499
0.000107562
9.46125e-05
0.000196174
0.00792188
0.063204
0.0644189
0.0270957
0.0486253
0.225958
0.23272
0.232989
0.233
0.233
0.233
0.231691
0.229574
0.226485
0.22287
0.219259
0.215446
0.210639
0.205165
0.199519
0.194746
0.191222
0.18868
0.186954
0.185631
0.184308
0.182702
0.18063
0.178053
0.174864
0.171348
0.167279
0.163145
0.159402
0.1563
0.154415
0.15364
0.153725
0.154196
0.154678
0.154424
0.152461
0.147368
0.138541
0.126507
0.112571
0.095153
0.069058
0.0364757
0.0100125
0.00235104
0.0027702
0.00251133
0.00270446
0.0088788
0.0241966
0.0429534
0.0593769
0.0716744
0.0789539
0.0826404
0.0833082
0.0827527
0.0799805
0.0743901
0.0667122
0.0582852
0.0495961
0.0407432
0.0316223
0.023364
0.0162953
0.0103986
0.00576918
0.0029582
0.00153771
0.000813575
0.000397272
0.000344361
0.00155956
0.0148418
0.0541254
0.0916437
0.107718
0.114826
0.113713
0.100967
0.0739682
0.0462517
0.0205432
0.00576753
0.00218729
0.00100748
0.000452887
0.000196211
0.000108541
0.000102499
0.000110678
9.92964e-05
0.000316345
0.0142717
0.0667696
0.053751
0.0259279
0.120278
0.229306
0.232851
0.232994
0.233
0.233
0.233
0.232893
0.232707
0.23237
0.231889
0.231191
0.230238
0.228956
0.22724
0.225077
0.222692
0.220394
0.218361
0.216478
0.214547
0.212455
0.210028
0.207221
0.204046
0.200297
0.196348
0.192317
0.188465
0.18514
0.183253
0.182971
0.183329
0.184463
0.185777
0.18669
0.186577
0.184883
0.180465
0.173205
0.164309
0.154504
0.1419
0.122977
0.0958098
0.0635637
0.0390046
0.0294984
0.0310387
0.0414225
0.0590421
0.0775767
0.0930142
0.10327
0.109174
0.111323
0.111139
0.108941
0.105196
0.0994087
0.09118
0.0812665
0.0710125
0.0608208
0.0508914
0.0411168
0.0323931
0.0247104
0.0175001
0.0111659
0.00673653
0.00408893
0.00254371
0.0013378
0.000588354
0.000509584
0.00532723
0.0294761
0.0589624
0.0724322
0.0807895
0.0806235
0.0697115
0.0485897
0.0242317
0.00464956
0.000847253
0.000323828
0.000173194
9.39707e-05
8.88111e-05
9.34357e-05
0.000109924
0.000115455
0.000112064
0.000722969
0.0232879
0.065382
0.0417983
0.0193694
0.176329
0.231164
0.232929
0.232997
0.233
0.233
0.233
0.232994
0.23298
0.232947
0.232891
0.232795
0.232647
0.232437
0.232159
0.231815
0.231417
0.230963
0.230446
0.229839
0.229087
0.228131
0.226894
0.225086
0.222604
0.219482
0.215966
0.212289
0.209728
0.209013
0.209299
0.210907
0.213488
0.215733
0.216722
0.216816
0.216292
0.214417
0.210889
0.205977
0.200096
0.193887
0.186345
0.175176
0.15972
0.139381
0.120971
0.112262
0.112615
0.118706
0.127599
0.134978
0.139559
0.141361
0.141097
0.138912
0.135141
0.129791
0.122943
0.114103
0.103477
0.0920425
0.0805048
0.0695937
0.0595006
0.0500515
0.0417545
0.0341807
0.0266557
0.019404
0.0139362
0.0101441
0.00749991
0.00469953
0.00226459
0.0005893
0.00107789
0.00717319
0.0250539
0.0395568
0.0496307
0.0506203
0.0423671
0.0217257
0.00482787
0.000536147
0.000145683
0.000114896
0.000109064
0.000102313
0.000141589
0.00016786
0.000164463
0.000147395
0.000190536
0.00238104
0.0326918
0.0580144
0.0308357
0.00401725
0.210607
0.232238
0.232972
0.232999
0.233
0.233
0.233
0.233
0.232999
0.232997
0.232992
0.232983
0.232968
0.232944
0.232911
0.232866
0.232807
0.232731
0.232631
0.232499
0.232326
0.232087
0.231746
0.23124
0.230496
0.229413
0.228029
0.227138
0.227174
0.227679
0.228571
0.229477
0.230116
0.230441
0.230391
0.230117
0.229621
0.228811
0.227563
0.225772
0.2234
0.220523
0.21691
0.212288
0.206332
0.198718
0.190682
0.183946
0.179674
0.177087
0.175276
0.173318
0.170759
0.16736
0.163158
0.15788
0.151396
0.143506
0.1344
0.123445
0.111163
0.0987561
0.0869896
0.0763315
0.0670781
0.0587768
0.0516467
0.0447256
0.0378558
0.0307703
0.0253849
0.0213179
0.0178786
0.0130787
0.00735351
0.0021909
0.000498437
0.000822126
0.00326861
0.00690031
0.0124502
0.0143915
0.00972548
0.00285037
0.000461882
0.000157699
0.000134991
0.000125174
0.000121929
0.000162638
0.000365428
0.000454918
0.000388341
0.000327409
0.000580282
0.00694902
0.039076
0.044339
0.0263285
0.0652044
0.226259
0.232736
0.23299
0.233
0.233
0.233
0.233
0.233
0.233
0.233
0.232999
0.232999
0.232998
0.232995
0.232992
0.232987
0.23298
0.23297
0.232954
0.232932
0.232898
0.23285
0.232779
0.232677
0.232536
0.232364
0.232222
0.232216
0.232302
0.232435
0.232561
0.23265
0.23269
0.232665
0.23257
0.23239
0.232101
0.23168
0.231066
0.229985
0.228477
0.226756
0.224638
0.222128
0.219178
0.215881
0.21232
0.208649
0.204918
0.200839
0.196538
0.192163
0.187195
0.181485
0.175111
0.167897
0.15977
0.150247
0.139427
0.127466
0.114633
0.102289
0.0913544
0.0820015
0.0744811
0.0678985
0.0623087
0.0566157
0.050641
0.0446398
0.0405182
0.0370932
0.0334114
0.0265377
0.016675
0.00631186
0.00168906
0.000625456
0.000443921
0.000578638
0.000917078
0.00103922
0.000709318
0.000351468
0.000246539
0.000181151
0.000143688
0.000148885
0.000189562
0.000365044
0.000871471
0.00102958
0.000902944
0.000869645
0.00185746
0.0160725
0.0441967
0.0291852
0.0194338
0.183094
0.231034
0.232919
0.232997
0.233
0.233
0.233
0.233
0.233
0.233
0.233
0.233
0.233
0.233
0.233
0.232999
0.232999
0.232998
0.232997
0.232995
0.232992
0.232988
0.232981
0.23297
0.232955
0.232938
0.232922
0.232916
0.232923
0.232937
0.232952
0.23296
0.232959
0.232945
0.232913
0.232852
0.232673
0.232303
0.231701
0.230825
0.229657
0.22822
0.226543
0.224513
0.222233
0.219737
0.217048
0.214168
0.211066
0.207685
0.20397
0.199707
0.195079
0.190057
0.18397
0.17703
0.169175
0.160376
0.150307
0.139138
0.127241
0.115154
0.104072
0.0949433
0.0878003
0.082471
0.0778685
0.0737656
0.0690843
0.0643733
0.0602215
0.0578552
0.0553911
0.0513568
0.0418896
0.0268935
0.0115172
0.00396088
0.00180481
0.00107231
0.00081015
0.000650853
0.00058976
0.000566715
0.00049771
0.000341735
0.000161922
0.000221074
0.000325175
0.00048951
0.000889944
0.00171901
0.00188179
0.00177881
0.00206405
0.0058239
0.0264554
0.0393013
0.0248147
0.0205338
0.221206
0.232463
0.232978
0.232999
0.233
0.233
0.233
0.233
0.233
0.233
0.233
0.233
0.233
0.233
0.233
0.233
0.233
0.233
0.233
0.233
0.232999
0.232999
0.232998
0.232997
0.232995
0.232994
0.232993
0.232993
0.232994
0.232995
0.232995
0.232994
0.23299
0.232981
0.232951
0.232861
0.232651
0.23224
0.231551
0.230541
0.229218
0.227616
0.225741
0.22355
0.221188
0.218682
0.216028
0.213174
0.210045
0.206601
0.202718
0.198306
0.193572
0.188245
0.181892
0.174685
0.166544
0.157423
0.147072
0.136141
0.12512
0.114696
0.105748
0.0990998
0.0946017
0.0916748
0.0888309
0.0857845
0.0817149
0.0784185
0.0764705
0.0758455
0.0740188
0.0685604
0.0548436
0.0335805
0.0145868
0.00594132
0.00340206
0.00265523
0.00235933
0.0019949
0.00167333
0.00135237
0.000878402
0.000364509
0.000178251
0.000583885
0.0010248
0.00152573
0.00226845
0.00313498
0.00311634
0.00320547
0.00460696
0.0152805
0.0331588
0.0262276
0.0197668
0.169784
0.230152
0.232862
0.232994
0.233
0.233
0.233
0.233
0.233
0.233
0.233
0.233
0.233
0.233
0.233
0.233
0.233
0.233
0.233
0.233
0.233
0.233
0.233
0.233
0.233
0.233
0.232999
0.232999
0.232999
0.232999
0.232999
0.232999
0.232998
0.232996
0.232989
0.232966
0.232896
0.232723
0.232363
0.231727
0.230757
0.229444
0.227816
0.225885
0.223577
0.221008
0.218155
0.215063
0.211722
0.208052
0.204045
0.199489
0.194633
0.189428
0.183286
0.176492
0.168903
0.160524
0.151166
0.14132
0.131786
0.122974
0.115186
0.108874
0.104993
0.103158
0.102197
0.10057
0.0979066
0.0942108
0.0928653
0.093388
0.0938926
0.0917126
0.0827988
0.0624605
0.0354302
0.0149534
0.00696477
0.00560318
0.00607668
0.00647105
0.00591378
0.00466441
0.00302464
0.00135432
0.00032664
0.000292735
0.00133109
0.00262919
0.00391198
0.00489338
0.00519211
0.00496238
0.00555706
0.0111293
0.0282278
0.0320514
0.0188779
0.0140145
0.21988
0.232303
0.232966
0.232999
0.233
0.233
0.233
0.233
0.233
0.233
0.233
0.233
0.233
0.233
0.233
0.233
0.233
0.233
0.233
0.233
0.233
0.233
0.233
0.233
0.233
0.233
0.233
0.233
0.233
0.233
0.233
0.233
0.232999
0.232998
0.232995
0.232983
0.232946
0.232851
0.232637
0.232218
0.231505
0.230425
0.228938
0.227031
0.22459
0.221667
0.218352
0.214649
0.210556
0.206082
0.201114
0.195767
0.190249
0.183914
0.177035
0.169606
0.161565
0.152895
0.143994
0.136028
0.129517
0.123703
0.118514
0.114646
0.113802
0.114165
0.1143
0.113
0.109778
0.107006
0.108229
0.111353
0.111877
0.107567
0.0926844
0.064717
0.0325543
0.0138388
0.00887687
0.0114088
0.0163924
0.0182164
0.0158695
0.0111413
0.0059516
0.00191675
0.000288699
0.000532037
0.00241058
0.00473231
0.00680302
0.00781506
0.00768647
0.00769309
0.0102841
0.02321
0.0338113
0.0238093
0.018449
0.162881
0.229803
0.232829
0.232992
0.233
0.233
0.233
0.233
0.233
0.233
0.233
0.233
0.233
0.233
0.233
0.233
0.233
0.233
0.233
0.233
0.233
0.233
0.233
0.233
0.233
0.233
0.233
0.233
0.233
0.233
0.233
0.233
0.233
0.233
0.232999
0.232998
0.232993
0.23298
0.232943
0.232851
0.232641
0.232209
0.231414
0.230118
0.228231
0.225694
0.22241
0.218614
0.214364
0.209647
0.204483
0.198697
0.192748
0.186244
0.179006
0.171255
0.163059
0.154445
0.14607
0.139718
0.135534
0.132298
0.129177
0.125781
0.124555
0.125509
0.127623
0.127911
0.125648
0.121445
0.121432
0.12581
0.130903
0.130058
0.120907
0.0974046
0.0608774
0.0284055
0.0144312
0.0170526
0.0282009
0.0398377
0.0389719
0.0310773
0.0208187
0.0112201
0.00307532
0.000289777
0.00110492
0.00406463
0.00695536
0.00887166
0.0101662
0.010831
0.0121464
0.0200679
0.0329826
0.0267434
0.0256671
0.0155285
0.219517
0.232226
0.23296
0.232998
0.233
0.233
0.233
0.233
0.233
0.233
0.233
0.233
0.233
0.233
0.233
0.233
0.233
0.233
0.233
0.233
0.233
0.233
0.233
0.233
0.233
0.233
0.233
0.233
0.233
0.233
0.233
0.233
0.233
0.233
0.233
0.232999
0.232998
0.232993
0.232979
0.232939
0.232828
0.232548
0.231939
0.230817
0.229043
0.226576
0.223254
0.219304
0.214864
0.209961
0.204566
0.198381
0.191797
0.184224
0.175832
0.166949
0.157946
0.149802
0.144777
0.142684
0.142092
0.141671
0.139931
0.137004
0.137147
0.139594
0.142439
0.141917
0.137351
0.134203
0.136988
0.14635
0.150349
0.146372
0.129881
0.0966174
0.0539221
0.0262444
0.0251113
0.0370909
0.0609604
0.0701664
0.0632784
0.047384
0.0355902
0.0226339
0.00466924
0.000308346
0.00270862
0.00634661
0.00890628
0.00993682
0.0112047
0.0148506
0.0191851
0.0295184
0.0282023