/*--------------------------------*- C++ -*----------------------------------*\
| =========                 |                                                 |
| \\      /  F ield         | OpenFOAM: The Open Source CFD Toolbox           |
|  \\    /   O peration     | Version:  2.3.0                                 |
|   \\  /    A nd           | Web:      www.OpenFOAM.org                      |
|    \\/     M anipulation  |                                                 |
\*---------------------------------------------------------------------------*/
FoamFile
{
    version     2.0;
    format      ascii;
    class       volScalarField;
    location    "0.05";
    object      OH;
}
// * * * * * * * * * * * * * * * * * * * * * * * * * * * * * * * * * * * * * //

dimensions      [0 0 0 0 0 0 0];

internalField   nonuniform List<scalar> 
5000
(
0
0
0
0
0
0
0
0
0
0
0
0
0
0
0
0
0
0
0
0
0
0
0
0
0
0
0
0
0
0
0
0
0
0
0
0
0
0
0
0
0
1.48389e-16
3.08331e-16
6.06998e-16
1.04999e-15
1.38334e-15
1.67705e-15
1.65639e-15
1.22991e-15
9.14353e-16
6.13156e-16
4.46921e-16
2.95775e-16
1.56103e-16
1.41018e-16
0
0
0
0
0
0
0
0
0
0
1.40172e-16
1.59996e-16
3.07929e-16
4.61164e-16
4.83902e-16
6.14356e-16
7.65077e-16
1.34759e-15
3.41324e-15
1.05132e-14
3.22817e-14
7.84404e-14
1.568e-13
2.73517e-13
4.8959e-13
8.71644e-13
1.44094e-12
2.35987e-12
3.99374e-12
6.40562e-12
1.0506e-11
1.89342e-11
3.08706e-11
5.3854e-11
8.23715e-11
1.43929e-10
3.27666e-10
6.75261e-10
6.22548e-10
9.79027e-10
4.24435e-08
0.000161737
2.79435e-07
5.15962e-09
1.24079e-10
0
0
0
0
0
0
0
0
0
0
0
0
0
0
0
0
0
0
0
0
0
0
0
0
0
0
0
0
0
0
0
0
0
0
0
0
0
0
0
1.44774e-16
4.29136e-16
1.06146e-15
2.85226e-15
6.17873e-15
1.20173e-14
1.95662e-14
2.52947e-14
2.41096e-14
1.82397e-14
1.20929e-14
7.71407e-15
4.71804e-15
2.89537e-15
1.81677e-15
1.07141e-15
6.21091e-16
3.24261e-16
1.68966e-16
1.49237e-16
1.35407e-16
0
0
1.3683e-16
1.56747e-16
3.15422e-16
6.40872e-16
1.4261e-15
2.73606e-15
4.67776e-15
5.8149e-15
5.14552e-15
4.43821e-15
5.10519e-15
8.6333e-15
1.8449e-14
5.32459e-14
1.38692e-13
2.89539e-13
6.49705e-13
1.2707e-12
2.28033e-12
4.01759e-12
6.45181e-12
1.04892e-11
1.89454e-11
3.33616e-11
6.64136e-11
1.2137e-10
2.40652e-10
4.42787e-10
9.57237e-10
3.47558e-09
9.1347e-09
6.11326e-09
4.60173e-09
1.03339e-07
0.000537784
2.28363e-07
4.55709e-09
1.1031e-10
0
0
0
0
0
0
0
0
0
0
0
0
0
0
0
0
0
0
0
0
0
0
0
0
0
0
0
0
0
0
0
0
0
0
0
0
0
1.36837e-16
1.62386e-16
4.59551e-16
1.45068e-15
4.66299e-15
1.55633e-14
4.87479e-14
1.247e-13
2.48961e-13
3.8511e-13
3.67825e-13
2.71906e-13
1.74616e-13
1.06319e-13
6.33594e-14
3.72829e-14
2.1775e-14
1.27798e-14
7.50887e-15
4.33456e-15
2.49097e-15
1.41011e-15
7.9767e-16
4.86725e-16
4.65067e-16
6.24081e-16
1.11426e-15
2.378e-15
5.56546e-15
1.3705e-14
3.12144e-14
6.30479e-14
8.71437e-14
7.24824e-14
4.87446e-14
3.38854e-14
2.91947e-14
4.09535e-14
9.30786e-14
2.41398e-13
6.43333e-13
1.50325e-12
3.14944e-12
5.90332e-12
1.00234e-11
1.82559e-11
3.15077e-11
6.34729e-11
1.20462e-10
2.58757e-10
5.72665e-10
1.12006e-09
2.71541e-09
7.72863e-09
3.04102e-08
8.28834e-08
5.42094e-08
2.18261e-08
2.82107e-07
0.00239005
1.50056e-07
3.67828e-09
9.33197e-11
0
0
0
0
0
0
0
0
0
0
0
0
0
0
0
0
0
0
0
0
0
0
0
0
0
0
0
0
0
0
0
0
0
1.49393e-16
3.03301e-16
4.62322e-16
4.75551e-16
6.05581e-16
9.10181e-16
1.92563e-15
4.53076e-15
1.53451e-14
5.20658e-14
1.70019e-13
6.04737e-13
2.31673e-12
7.59671e-12
1.32919e-11
1.16e-11
5.4842e-12
1.91899e-12
8.49033e-13
3.63009e-13
2.02009e-13
1.12939e-13
6.69184e-14
4.04111e-14
2.34052e-14
1.25359e-14
6.62053e-15
3.97741e-15
2.99665e-15
3.4644e-15
5.06638e-15
9.64717e-15
2.25665e-14
6.03173e-14
1.71509e-13
6.37148e-13
1.82098e-12
1.46759e-12
7.60463e-13
3.59213e-13
1.92459e-13
1.15619e-13
1.66298e-13
3.71788e-13
1.15244e-12
2.87621e-12
6.10378e-12
1.1177e-11
2.22378e-11
4.25038e-11
8.23795e-11
1.81838e-10
3.72229e-10
8.57217e-10
2.06701e-09
4.50651e-09
1.10423e-08
3.84843e-08
1.60506e-07
3.23895e-07
2.00978e-07
6.59678e-08
7.01008e-07
0.0035189
1.11855e-07
3.09406e-09
8.09975e-11
0
0
0
0
0
0
0
0
0
0
0
0
0
0
0
0
0
0
0
0
0
0
0
0
0
0
0
0
0
1.32636e-16
1.47603e-16
3.04137e-16
6.45562e-16
1.74047e-15
3.68492e-15
6.08619e-15
6.22261e-15
5.08562e-15
5.10909e-15
7.36967e-15
1.41385e-14
4.48422e-14
1.48817e-13
5.50794e-13
2.19616e-12
8.08139e-12
2.94563e-11
1.24156e-10
2.89161e-10
2.9503e-10
1.84132e-10
5.21835e-11
1.04901e-11
3.59282e-12
1.58397e-12
7.54793e-13
3.19852e-13
1.59321e-13
8.22207e-14
4.66678e-14
2.82541e-14
1.81748e-14
1.57161e-14
1.93393e-14
3.24305e-14
7.24669e-14
1.92708e-13
7.034e-13
3.50184e-12
2.02544e-11
5.31304e-11
3.54902e-11
9.29167e-12
1.46352e-12
3.05801e-13
3.06669e-13
6.50845e-13
1.77145e-12
4.72717e-12
9.92098e-12
2.11668e-11
4.29473e-11
8.55504e-11
1.99008e-10
4.3463e-10
9.80412e-10
2.50617e-09
5.94534e-09
1.37482e-08
3.88558e-08
1.42757e-07
5.27805e-07
6.76656e-07
3.80416e-07
1.46175e-07
1.30311e-06
0.00249399
8.49444e-08
2.55165e-09
6.84808e-11
0
0
0
0
0
0
0
0
0
0
0
0
0
0
0
0
1.24777e-16
1.40231e-16
1.58039e-16
2.8536e-16
1.5794e-16
1.46711e-16
1.40962e-16
1.44578e-16
2.78214e-16
4.42301e-16
7.59724e-16
1.21835e-15
1.51605e-15
1.51877e-15
1.84622e-15
3.14863e-15
7.13462e-15
1.68646e-14
3.80247e-14
7.3232e-14
7.59006e-14
5.67004e-14
4.26089e-14
3.60578e-14
4.52302e-14
9.6395e-14
2.83412e-13
1.23644e-12
4.80391e-12
1.68536e-11
6.96583e-11
3.18896e-10
1.74e-09
5.72867e-09
7.21781e-09
6.05634e-09
3.22233e-09
1.01002e-09
1.64813e-10
2.22365e-11
5.0176e-12
1.76111e-12
8.09023e-13
3.57742e-13
1.94786e-13
1.06994e-13
6.32362e-14
6.6851e-14
1.00216e-13
2.13755e-13
6.20158e-13
2.25561e-12
9.76513e-12
6.37989e-11
6.36758e-10
1.11162e-09
4.03996e-10
2.29803e-11
1.2413e-12
6.80322e-13
1.02059e-12
2.62167e-12
6.69891e-12
1.61613e-11
3.52379e-11
7.74111e-11
1.80132e-10
4.01711e-10
9.54324e-10
2.53145e-09
6.23208e-09
1.41932e-08
3.53978e-08
1.08058e-07
4.18295e-07
9.9158e-07
9.39293e-07
4.45465e-07
2.54162e-07
2.01953e-06
0.000902188
6.54089e-08
2.05788e-09
5.5067e-11
0
0
0
0
0
0
0
1.14508e-16
1.28122e-16
2.60205e-16
5.23111e-16
8.03387e-16
9.64903e-16
1.10211e-15
1.23896e-15
1.53166e-15
2.2888e-15
3.8304e-15
6.15777e-15
7.48316e-15
6.09335e-15
4.37859e-15
3.299e-15
2.98813e-15
4.03803e-15
7.35039e-15
1.31812e-14
2.08836e-14
2.57333e-14
2.39416e-14
2.31451e-14
2.89276e-14
4.64502e-14
8.46908e-14
1.90935e-13
7.78884e-13
1.10919e-12
7.4697e-13
4.11117e-13
2.67816e-13
1.69748e-13
2.02952e-13
5.47389e-13
2.17401e-12
8.00572e-12
2.89793e-11
1.44163e-10
8.09771e-10
4.87735e-09
2.21956e-08
4.90488e-08
5.12796e-08
4.32433e-08
2.42844e-08
9.49852e-09
3.15599e-09
1.01571e-09
2.69931e-10
4.00053e-11
7.46983e-12
2.31729e-12
6.7552e-13
2.16383e-13
2.09909e-13
2.91981e-13
6.71929e-13
1.86648e-12
6.20633e-12
2.49612e-11
1.72743e-10
2.1438e-09
1.59098e-08
1.13486e-08
8.54828e-10
9.85795e-12
1.57287e-12
1.77901e-12
3.84541e-12
9.46577e-12
2.43314e-11
6.05537e-11
1.39747e-10
3.06236e-10
8.31031e-10
2.24542e-09
5.68323e-09
1.3327e-08
3.14007e-08
8.31568e-08
2.63926e-07
9.10148e-07
1.21862e-06
9.60447e-07
3.3412e-07
3.42012e-07
3.39957e-06
0.000110826
4.88967e-08
1.55833e-09
4.08113e-11
1.08599e-16
3.34329e-16
8.02801e-16
1.30287e-15
1.68968e-15
2.05864e-15
2.34043e-15
2.92486e-15
4.4732e-15
7.71017e-15
1.34264e-14
2.06145e-14
2.56734e-14
2.7429e-14
2.94334e-14
3.47074e-14
4.87436e-14
7.85755e-14
1.26573e-13
1.74123e-13
1.61e-13
1.14516e-13
7.96542e-14
5.87506e-14
5.67875e-14
8.17186e-14
1.34599e-13
2.30166e-13
3.33749e-13
3.16897e-13
2.65997e-13
2.38922e-13
2.61092e-13
3.53859e-13
8.47199e-13
4.57424e-12
2.2961e-11
2.65217e-11
1.31236e-11
3.95982e-12
8.51028e-13
5.50429e-13
1.034e-12
3.67358e-12
1.3114e-11
5.76759e-11
2.88747e-10
2.16906e-09
1.34063e-08
6.19714e-08
1.35199e-07
1.41505e-07
1.24223e-07
8.48525e-08
5.45589e-08
4.41626e-08
3.77602e-08
2.84126e-08
1.63242e-08
4.19938e-09
1.51773e-10
5.3274e-12
8.63019e-13
7.77588e-13
1.05375e-12
2.08189e-12
5.54843e-12
1.62934e-11
7.30158e-11
6.07288e-10
7.96867e-09
8.66279e-08
1.14905e-07
2.27809e-08
1.43117e-10
4.6921e-12
3.5387e-12
5.69119e-12
1.37119e-11
3.74773e-11
9.20255e-11
2.47946e-10
6.53138e-10
1.72125e-09
4.41863e-09
1.12561e-08
2.81367e-08
6.91332e-08
1.79259e-07
5.82161e-07
1.31742e-06
1.18882e-06
5.53596e-07
2.06831e-07
4.2792e-07
9.90324e-06
1.40871e-05
3.49031e-08
1.10377e-09
2.79456e-11
6.32427e-15
2.13207e-14
4.70389e-14
7.51894e-14
8.76318e-14
8.77902e-14
8.95862e-14
1.03337e-13
1.43932e-13
2.28031e-13
3.89667e-13
7.24211e-13
9.35295e-13
9.09908e-13
8.53035e-13
8.58827e-13
1.04608e-12
1.7158e-12
3.77612e-12
9.81333e-12
1.67195e-11
8.48193e-12
3.71241e-12
1.68063e-12
8.42105e-13
6.5551e-13
9.55019e-13
2.76579e-12
1.10878e-11
1.73221e-11
1.14809e-11
6.72338e-12
3.95247e-12
3.02055e-12
4.83786e-12
1.89132e-11
2.06702e-10
1.23629e-09
9.14025e-10
1.26975e-10
7.07014e-12
1.58996e-12
2.10347e-12
5.83224e-12
2.1714e-11
9.81871e-11
7.27457e-10
5.84691e-09
3.85797e-08
1.58504e-07
2.7088e-07
2.69519e-07
2.2689e-07
1.98863e-07
2.06118e-07
2.48424e-07
3.11185e-07
3.15908e-07
2.66587e-07
1.53905e-07
2.40774e-08
2.554e-10
5.61495e-12
3.38477e-12
4.21133e-12
6.9415e-12
1.59515e-11
5.03339e-11
2.65555e-10
2.85217e-09
3.62549e-08
3.03857e-07
5.14478e-07
2.20668e-07
3.62454e-09
2.04448e-11
6.79666e-12
9.00094e-12
2.03435e-11
5.94937e-11
1.71518e-10
4.49222e-10
1.13162e-09
3.31507e-09
9.55435e-09
2.51552e-08
6.28137e-08
1.48046e-07
3.75578e-07
1.11628e-06
1.44511e-06
9.09123e-07
1.78616e-07
1.38412e-07
5.5498e-07
4.00554e-05
2.83935e-06
2.24488e-08
6.92044e-10
1.69237e-11
2.92826e-13
1.49867e-12
4.97231e-12
1.1592e-11
1.83754e-11
1.65384e-11
1.18463e-11
1.06321e-11
1.42794e-11
2.98992e-11
9.47035e-11
3.39174e-10
9.20299e-10
9.57014e-10
7.17768e-10
2.91271e-10
1.31808e-10
1.43475e-10
3.62987e-10
3.48056e-09
1.32382e-08
1.29887e-08
5.21918e-09
5.37855e-10
1.20871e-11
4.983e-12
7.059e-12
2.47218e-11
2.37244e-10
2.75689e-09
3.70594e-09
2.23072e-09
3.03476e-10
3.4318e-11
3.34598e-11
9.9532e-11
1.16871e-09
2.47977e-08
4.10369e-08
1.26299e-08
2.36118e-10
6.23151e-12
5.15548e-12
9.69483e-12
3.73124e-11
2.24931e-10
1.92072e-09
1.69321e-08
1.10329e-07
3.57404e-07
5.03062e-07
4.92196e-07
4.83732e-07
5.22297e-07
6.8444e-07
9.39851e-07
1.1951e-06
1.255e-06
1.19922e-06
8.91465e-07
2.60622e-07
6.51708e-09
4.8797e-11
1.54296e-11
1.72319e-11
2.55304e-11
5.71233e-11
2.07969e-10
1.21671e-09
1.60712e-08
1.61247e-07
7.53138e-07
9.57555e-07
6.13279e-07
5.89018e-08
2.46928e-10
1.55231e-11
1.64985e-11
3.02785e-11
8.79839e-11
2.76546e-10
8.30388e-10
2.47698e-09
7.30708e-09
2.0557e-08
5.52796e-08
1.34786e-07
3.0562e-07
7.72223e-07
1.6244e-06
1.52044e-06
4.96499e-07
7.04408e-08
1.05253e-07
8.12929e-07
0.000484958
7.8227e-07
1.25879e-08
3.73697e-10
8.9601e-12
7.98748e-07
1.29747e-07
3.4801e-07
2.48537e-06
4.47809e-06
8.54133e-07
1.95905e-08
3.37143e-09
3.19463e-09
5.41793e-09
1.71551e-08
1.88089e-07
8.21021e-07
7.03209e-07
2.78717e-07
2.99625e-08
1.59968e-08
1.57778e-08
1.50529e-08
1.64249e-07
2.37045e-06
2.87029e-06
1.16351e-06
1.09584e-07
9.76057e-10
4.94798e-11
6.26611e-11
2.60757e-10
3.7964e-09
5.97652e-08
1.35911e-07
1.18772e-07
3.2024e-08
1.11412e-09
5.29948e-10
1.31743e-09
1.6764e-08
2.20142e-07
5.99556e-07
3.14195e-07
1.39878e-08
5.45296e-11
1.24648e-11
2.00248e-11
7.22447e-11
5.30693e-10
5.5657e-09
5.17439e-08
2.95538e-07
7.70712e-07
9.613e-07
9.97595e-07
1.0706e-06
1.29595e-06
1.76845e-06
2.41246e-06
2.84683e-06
2.88596e-06
2.64917e-06
1.93823e-06
7.53375e-07
3.41995e-08
3.9049e-10
8.56861e-11
8.66766e-11
1.10895e-10
2.78731e-10
1.11652e-09
8.9977e-09
9.54275e-08
4.87594e-07
9.64637e-07
1.06224e-06
8.73995e-07
3.03431e-07
3.32828e-09
4.17326e-11
3.02472e-11
5.40832e-11
1.59792e-10
5.30478e-10
1.6313e-09
4.84989e-09
1.46635e-08
4.37101e-08
1.19562e-07
2.8624e-07
6.24734e-07
1.38507e-06
2.05178e-06
1.61597e-06
2.42655e-07
4.30364e-08
1.04475e-07
1.22975e-06
0.00355651
2.51006e-07
6.36127e-09
1.86028e-10
4.45806e-12
0.00281232
0.000560018
0.000683029
0.00087262
0.000491577
7.62134e-05
3.57371e-06
3.21023e-07
2.66586e-07
5.26283e-07
3.70921e-06
2.88597e-05
4.76363e-05
3.50603e-05
1.15776e-05
1.82302e-06
5.80883e-07
5.90503e-07
1.41799e-06
1.13919e-05
2.9402e-05
1.66091e-05
4.59045e-06
7.13284e-07
7.4289e-09
5.06797e-10
7.20808e-10
3.77675e-09
5.52919e-08
4.49967e-07
1.42283e-06
1.1509e-06
2.7019e-07
1.51757e-08
9.74319e-09
2.79233e-08
1.8183e-07
1.55148e-06
2.07646e-06
1.60296e-06
2.48268e-07
9.13064e-10
3.98649e-11
4.88364e-11
1.71457e-10
1.40283e-09
1.78674e-08
1.60575e-07
7.58641e-07
1.44842e-06
1.74655e-06
1.91699e-06
2.2962e-06
3.30241e-06
4.98952e-06
6.33111e-06
6.68111e-06
6.42574e-06
5.23653e-06
3.25001e-06
1.32608e-06
1.03057e-07
3.08643e-09
5.9498e-10
5.59789e-10
7.79477e-10
1.98679e-09
9.77735e-09
7.31779e-08
5.13576e-07
7.34183e-07
5.64761e-07
5.76511e-07
6.30089e-07
3.61141e-07
1.95032e-08
1.15462e-10
6.36452e-11
9.11021e-11
2.73631e-10
9.574e-10
3.18365e-09
1.00571e-08
3.00478e-08
9.44261e-08
2.5857e-07
5.91361e-07
1.18348e-06
2.16363e-06
2.51446e-06
1.76906e-06
1.32227e-07
3.76835e-08
1.40223e-07
2.0089e-06
0.00106861
9.28748e-08
3.0037e-09
8.78024e-11
2.14347e-12
0.00294402
0.00319619
0.00319203
0.00301202
0.00238642
0.000921593
0.000192726
5.95736e-05
4.74667e-05
7.41266e-05
0.000209045
0.000455767
0.000448977
0.000274908
0.000103747
4.15472e-05
2.73093e-05
2.99808e-05
5.71474e-05
0.000124697
9.37635e-05
3.10103e-05
4.51276e-06
3.62235e-07
1.47279e-08
6.40684e-09
1.0205e-08
5.47458e-08
3.71344e-07
5.81801e-06
7.82119e-06
4.06333e-06
7.43088e-07
1.23898e-07
1.05776e-07
2.34024e-07
2.31991e-06
3.01409e-06
2.51272e-06
1.96587e-06
7.31599e-07
6.03423e-09
1.23735e-10
1.38486e-10
4.83138e-10
4.91146e-09
5.98532e-08
4.85183e-07
1.5705e-06
2.67563e-06
3.59855e-06
4.78169e-06
7.04469e-06
1.06935e-05
1.43234e-05
1.63062e-05
1.63265e-05
1.48564e-05
1.0853e-05
5.89158e-06
2.1634e-06
3.22568e-07
2.42742e-08
5.34118e-09
4.39765e-09
6.5844e-09
1.837e-08
9.21052e-08
5.59954e-07
1.03321e-06
5.48484e-07
1.55125e-07
1.61535e-07
2.82476e-07
2.26093e-07
2.67088e-08
2.68448e-10
1.13178e-10
1.92968e-10
5.88122e-10
2.1896e-09
7.38729e-09
2.26557e-08
6.86803e-08
2.07612e-07
5.52764e-07
1.15305e-06
1.95801e-06
3.16132e-06
3.16958e-06
1.8845e-06
9.03935e-08
4.36807e-08
2.68738e-07
1.167e-05
1.3034e-05
4.09197e-08
1.34401e-09
4.04791e-11
1.04268e-12
0.0027056
0.00279528
0.00285956
0.00294045
0.00296268
0.00269278
0.00208935
0.00145822
0.00133099
0.00152576
0.0020095
0.0021143
0.00195697
0.00151497
0.000915311
0.000541748
0.000450767
0.000484109
0.000644104
0.000615809
0.000331347
7.31012e-05
9.58929e-06
5.42643e-07
9.40606e-08
7.5987e-08
1.00601e-07
4.57851e-07
7.90812e-06
3.43647e-05
3.20677e-05
1.68549e-05
3.49974e-06
1.4361e-06
1.85866e-06
6.99991e-06
6.16757e-06
2.88854e-06
5.90839e-07
4.81136e-07
2.86191e-07
9.22495e-09
3.34424e-10
4.13989e-10
1.79638e-09
2.00849e-08
2.25081e-07
1.22509e-06
3.42391e-06
6.71677e-06
1.05924e-05
1.56696e-05
2.31515e-05
3.24786e-05
4.10794e-05
4.47591e-05
4.36729e-05
3.73425e-05
2.50847e-05
1.27468e-05
4.40489e-06
9.86866e-07
1.71587e-07
4.99194e-08
4.17459e-08
5.56464e-08
1.52787e-07
6.75178e-07
1.62422e-06
1.30947e-06
1.39962e-07
2.60072e-08
3.18287e-08
8.95445e-08
1.01583e-07
1.69144e-08
3.66929e-10
2.27021e-10
3.65545e-10
1.17796e-09
4.89214e-09
1.68144e-08
5.28202e-08
1.60466e-07
4.66918e-07
1.10616e-06
1.9393e-06
3.1773e-06
4.62521e-06
4.09296e-06
1.95309e-06
7.04889e-08
5.8151e-08
6.29154e-07
0.000493003
9.41308e-07
1.7371e-08
6.00615e-10
1.94519e-11
5.35563e-13
0.00267443
0.00268967
0.00271906
0.0027873
0.00287752
0.00298212
0.0030387
0.00305033
0.00305462
0.00304388
0.0030254
0.0029928
0.00295679
0.00286506
0.00269672
0.00254721
0.00242318
0.00234133
0.00218684
0.00187154
0.00111473
0.000290588
4.4107e-05
4.78572e-06
1.03437e-06
8.42321e-07
1.89939e-06
1.23481e-05
8.30825e-05
0.000171711
0.000155479
8.69655e-05
3.78282e-05
2.8122e-05
3.21887e-05
3.17937e-05
1.15975e-05
1.64605e-06
8.34894e-08
4.68065e-08
3.7696e-08
4.18614e-09
8.49593e-10
1.24944e-09
8.1073e-09
9.20403e-08
7.38473e-07
3.22851e-06
1.04308e-05
2.08163e-05
3.43845e-05
5.31993e-05
7.92216e-05
0.000107901
0.000131121
0.000136984
0.00012926
0.000103379
6.65515e-05
3.24521e-05
1.20904e-05
3.07838e-06
8.02359e-07
3.35102e-07
2.89667e-07
3.77815e-07
8.79155e-07
2.46746e-06
2.48539e-06
9.43394e-07
2.09486e-08
5.21493e-09
8.14613e-09
2.57532e-08
3.03202e-08
7.26587e-09
4.72181e-10
3.93698e-10
8.36795e-10
3.22091e-09
1.20482e-08
4.20023e-08
1.28015e-07
3.73407e-07
9.78839e-07
1.91635e-06
3.23142e-06
5.5826e-06
7.06664e-06
5.26443e-06
1.92337e-06
6.39348e-08
8.78059e-08
1.23807e-06
0.00329087
2.08469e-07
7.75036e-09
2.9789e-10
1.03999e-11
2.99186e-13
0.00266974
0.00266732
0.00266349
0.00266518
0.00268567
0.00273671
0.00279912
0.00284078
0.00284405
0.00281165
0.00275336
0.00273522
0.00277385
0.00288664
0.00298824
0.00305247
0.00306878
0.00305911
0.00300245
0.00289161
0.00248923
0.0014472
0.000340581
6.90581e-05
2.93613e-05
2.59469e-05
5.1082e-05
0.000205786
0.00074818
0.00103634
0.00097397
0.000688353
0.00040291
0.000288518
0.000219049
0.000104176
1.91052e-05
1.20635e-06
2.74286e-08
5.12189e-09
3.52079e-09
1.98904e-09
1.93142e-09
5.59325e-09
4.43646e-08
3.90571e-07
2.23418e-06
1.25361e-05
3.48061e-05
7.388e-05
0.000131474
0.000208827
0.000301952
0.000398667
0.000452428
0.000452334
0.000409068
0.00031379
0.000196785
9.51562e-05
3.61387e-05
1.30813e-05
3.96505e-06
1.57091e-06
1.36354e-06
1.9294e-06
4.28049e-06
4.77929e-06
3.17137e-06
4.38151e-07
4.29851e-09
1.52521e-09
2.54676e-09
7.86452e-09
8.86625e-09
2.55128e-09
6.0946e-10
7.42831e-10
2.26256e-09
9.77995e-09
3.64954e-08
1.13805e-07
3.17455e-07
8.57428e-07
1.78125e-06
3.31307e-06
6.02427e-06
1.03043e-05
1.11612e-05
6.93492e-06
1.68742e-06
6.13861e-08
1.39873e-07
2.31998e-06
0.00029687
9.10854e-08
4.23247e-09
1.7254e-10
6.16371e-12
1.78719e-13
0.00266408
0.00264226
0.00259356
0.00252696
0.00245914
0.00239791
0.00233924
0.00227915
0.0022054
0.00210526
0.00200311
0.00196363
0.00198228
0.00205866
0.00216967
0.0022715
0.00236422
0.0024639
0.00259013
0.00278659
0.00302787
0.00299916
0.00223304
0.00102435
0.000613547
0.000595283
0.00100892
0.00201997
0.00262971
0.00271932
0.00269251
0.00252849
0.00219954
0.00167299
0.00098459
0.000311947
3.89553e-05
1.70111e-06
5.04717e-08
4.81213e-09
3.10539e-09
3.0157e-09
6.35296e-09
3.15096e-08
2.3303e-07
1.36124e-06
1.21172e-05
4.84828e-05
0.000142595
0.000324066
0.000571735
0.000833633
0.0010759
0.00124274
0.00128285
0.00124523
0.00111225
0.000889807
0.000586788
0.000298234
0.000120993
4.6924e-05
1.99629e-05
1.05104e-05
9.01387e-06
1.06419e-05
1.09776e-05
7.86117e-06
3.50867e-06
2.87506e-07
2.26154e-09
7.33542e-10
9.292e-10
2.13443e-09
2.27202e-09
9.98436e-10
8.02077e-10
1.4108e-09
6.98405e-09
3.34007e-08
1.16519e-07
3.13233e-07
8.09291e-07
1.66753e-06
3.19928e-06
6.51523e-06
1.21838e-05
1.92179e-05
1.81722e-05
8.95313e-06
1.2856e-06
6.36915e-08
2.42403e-07
8.28513e-06
2.2981e-05
5.65618e-08
2.62125e-09
1.05449e-10
3.70966e-12
1.06064e-13
0.00264377
0.00255268
0.00242446
0.00224444
0.00205187
0.00187508
0.00171363
0.0015692
0.00143096
0.0013078
0.00120706
0.00116476
0.00116507
0.0011889
0.00123307
0.00128283
0.00134715
0.00143244
0.00156578
0.00179142
0.00219293
0.00274539
0.0032099
0.00328624
0.00316696
0.00316394
0.00328545
0.00320961
0.00301423
0.00294032
0.00295373
0.00302017
0.0030613
0.00286784
0.00220069
0.000976693
0.000120222
6.8908e-06
2.13906e-07
2.0117e-08
9.31534e-09
1.1926e-08
3.84208e-08
1.89039e-07
9.13933e-07
1.00667e-05
5.62364e-05
0.000243314
0.000708049
0.00131463
0.00175891
0.00206449
0.00226992
0.00235514
0.00233868
0.00225203
0.00207103
0.00179233
0.00137579
0.000856869
0.00041124
0.000173969
7.51261e-05
4.13841e-05
3.26858e-05
2.95549e-05
2.23579e-05
1.1586e-05
3.84746e-06
3.01827e-07
2.26404e-09
4.85622e-10
4.9238e-10
6.65063e-10
7.93024e-10
8.0798e-10
1.07029e-09
3.55028e-09
2.40305e-08
1.25268e-07
3.80363e-07
8.74654e-07
1.68536e-06
3.19913e-06
6.61635e-06
1.36941e-05
2.57167e-05
3.54066e-05
2.82456e-05
1.06776e-05
8.55128e-07
7.40578e-08
4.27094e-07
3.56202e-05
4.75036e-06
3.5788e-08
1.5866e-09
6.14805e-11
2.11214e-12
5.93177e-14
0.00254357
0.00227512
0.00193371
0.00158217
0.0013029
0.00108424
0.000914303
0.000786111
0.000690615
0.000614244
0.000569022
0.000555632
0.000554448
0.000559057
0.00056805
0.000580335
0.000602789
0.000643011
0.000710907
0.000828936
0.00104797
0.00141861
0.0019034
0.00235769
0.00256488
0.00256848
0.00236684
0.00208273
0.00187814
0.00181494
0.00185952
0.00205628
0.00240309
0.00281501
0.00296611
0.00230724
0.000593881
3.5634e-05
1.11798e-06
1.42217e-07
7.70834e-08
9.68329e-08
2.35151e-07
8.41515e-07
9.21711e-06
6.22913e-05
0.000368891
0.00129827
0.00217725
0.00265381
0.00281711
0.00288479
0.00289104
0.00287814
0.00285251
0.00280704
0.0027144
0.0025537
0.00221926
0.00169194
0.00108703
0.00058099
0.000273968
0.000147157
9.96978e-05
7.11945e-05
4.03725e-05
1.62363e-05
4.96424e-06
6.03011e-07
5.8158e-09
4.97883e-10
3.92026e-10
4.35441e-10
5.90138e-10
8.75182e-10
2.44508e-09
1.23657e-08
9.96673e-08
4.57387e-07
1.07827e-06
1.96473e-06
3.68538e-06
7.29982e-06
1.43743e-05
2.94005e-05
5.37952e-05
6.10468e-05
4.0292e-05
1.09694e-05
5.22679e-07
9.87088e-08
7.40926e-07
0.000263466
1.32973e-06
2.09546e-08
8.90696e-10
3.35343e-11
1.13131e-12
3.13174e-14
0.00227596
0.0015655
0.000890425
0.000561319
0.000408074
0.000314364
0.00025309
0.000218037
0.000198681
0.000191789
0.000190019
0.000193909
0.000197617
0.000199297
0.000200534
0.000203026
0.000209482
0.000222458
0.000246748
0.000295609
0.000373858
0.000495776
0.000663782
0.000836783
0.000938411
0.000959102
0.000907744
0.000830661
0.000778374
0.000773142
0.000823973
0.000982917
0.00131754
0.00187678
0.00257207
0.00307268
0.00230747
0.000269377
1.59148e-05
1.24724e-06
4.04821e-07
5.26011e-07
1.93864e-06
1.23742e-05
8.15029e-05
0.000570986
0.00202973
0.00286098
0.00301295
0.00289113
0.00275743
0.00264116
0.00256168
0.00255928
0.00261535
0.00270968
0.00277408
0.00280338
0.00269707
0.00240699
0.00189866
0.00131017
0.000763864
0.000425227
0.000252421
0.000148795
7.2059e-05
2.72861e-05
7.90185e-06
1.14963e-06
2.43227e-08
1.14183e-09
6.85134e-10
6.65756e-10
8.125e-10
1.67034e-09
7.69079e-09
5.29524e-08
3.92229e-07
1.32983e-06
2.82212e-06
5.46039e-06
9.74178e-06
1.70424e-05
3.0857e-05
6.01926e-05
9.61149e-05
9.33766e-05
5.20639e-05
9.13707e-06
3.30148e-07
1.38633e-07
1.19063e-06
0.00245815
4.22434e-07
1.17727e-08
4.85364e-10
1.78673e-11
5.90627e-13
1.6072e-14
4.36031e-07
2.14947e-06
7.07032e-06
1.5436e-05
2.00411e-05
2.10222e-05
2.15601e-05
2.32561e-05
2.74366e-05
3.23606e-05
3.76317e-05
4.2445e-05
4.50432e-05
4.63427e-05
4.73594e-05
4.88364e-05
5.15029e-05
5.65644e-05
6.51173e-05
7.64644e-05
9.95776e-05
0.000130715
0.000168248
0.000207754
0.000235138
0.000247121
0.000245586
0.000239272
0.000234501
0.000239289
0.000265702
0.000343973
0.000507717
0.000835723
0.00137059
0.00221108
0.00320817
0.00217424
0.000238871
2.96511e-05
1.18543e-05
1.41501e-05
3.82473e-05
0.000190769
0.00114187
0.00283144
0.00316118
0.00277531
0.00233051
0.00201708
0.00186008
0.00176381
0.00174866
0.00182162
0.00199052
0.00220701
0.00242248
0.00262379
0.00275201
0.00272529
0.00249227
0.00204306
0.00145
0.00091914
0.000548362
0.000310152
0.000146793
5.92588e-05
1.61275e-05
2.21137e-06
1.35837e-07
7.72834e-09
2.73352e-09
2.09533e-09
2.46007e-09
6.13415e-09
3.27554e-08
2.34442e-07
1.25269e-06
4.72696e-06
1.03218e-05
1.66692e-05
2.53737e-05
3.90008e-05
6.114e-05
0.000105094
0.00014029
0.00012077
5.59463e-05
6.29344e-06
2.31892e-07
2.06268e-07
1.80259e-06
0.00308989
1.7123e-07
6.61793e-09
2.62935e-10
9.32496e-12
2.97344e-13
7.86093e-15
2.8009e-08
7.46295e-08
1.44256e-07
2.70312e-07
4.02339e-07
6.40549e-07
9.90689e-07
1.53913e-06
2.36539e-06
3.33661e-06
4.26645e-06
5.11586e-06
5.84631e-06
6.39093e-06
6.92479e-06
7.56983e-06
8.72856e-06
1.04232e-05
1.25319e-05
1.57126e-05
1.96946e-05
2.66374e-05
3.362e-05
4.19879e-05
4.75224e-05
5.0131e-05
5.0403e-05
4.96028e-05
4.87397e-05
4.99166e-05
5.60084e-05
7.44912e-05
0.00012106
0.000218149
0.00039901
0.000778187
0.00172352
0.00316442
0.00284905
0.00100001
0.000467297
0.00054394
0.00124557
0.00272254
0.00334352
0.00278598
0.00195536
0.0013973
0.00110823
0.000967537
0.000932058
0.000929203
0.000990953
0.00113887
0.0013631
0.00164411
0.00194678
0.00225418
0.00253882
0.00270782
0.00272134
0.00253288
0.00209946
0.00155336
0.0010635
0.000681419
0.000362417
0.000160935
4.25284e-05
5.94557e-06
6.64917e-07
7.68131e-08
2.43654e-08
1.44956e-08
1.55327e-08
3.6119e-08
1.8591e-07
9.34268e-07
5.61816e-06
1.96549e-05
3.39878e-05
4.80574e-05
6.18614e-05
7.64827e-05
9.51998e-05
0.000134346
0.000154188
0.00012335
4.85257e-05
3.6987e-06
1.93063e-07
3.4365e-07
3.60575e-06
0.000491608
8.92204e-08
3.61117e-09
1.35421e-10
4.55672e-12
1.38826e-13
3.54087e-15
2.29674e-09
6.33549e-09
1.37928e-08
2.44683e-08
4.00681e-08
6.1588e-08
9.05864e-08
1.29619e-07
1.95318e-07
2.81838e-07
3.65758e-07
4.59479e-07
5.76778e-07
6.96848e-07
8.26612e-07
1.04607e-06
1.32116e-06
1.66012e-06
2.20407e-06
2.83761e-06
3.844e-06
5.02956e-06
6.45408e-06
7.32404e-06
7.54972e-06
7.50473e-06
7.09763e-06
6.5731e-06
6.20326e-06
6.29555e-06
7.12226e-06
9.65055e-06
1.56431e-05
2.82548e-05
5.41527e-05
0.000111638
0.000297235
0.000940698
0.00229493
0.00325342
0.00345683
0.00343366
0.00315059
0.00243132
0.00148517
0.000854042
0.000554032
0.000423622
0.000377282
0.000370647
0.000394753
0.000439802
0.000537029
0.000696999
0.000921417
0.00121351
0.00153869
0.00188337
0.00222504
0.00250109
0.00266929
0.00271691
0.00255152
0.00220238
0.00178902
0.00139678
0.000939946
0.000492552
0.000137813
2.10304e-05
3.42941e-06
6.00341e-07
2.648e-07
1.44712e-07
1.38855e-07
2.60121e-07
9.05382e-07
4.88798e-06
2.6689e-05
6.6655e-05
9.25161e-05
0.000104139
0.000103699
9.79916e-05
0.000101162
0.000127297
0.000145628
0.000107303
3.53367e-05
1.99286e-06
2.03376e-07
6.68064e-07
1.90928e-05
1.5219e-05
4.52175e-08
1.75375e-09
6.17188e-11
1.97356e-12
5.76749e-14
1.42317e-15
1.33755e-10
4.33711e-10
1.15042e-09
2.38558e-09
4.51593e-09
7.81921e-09
1.25347e-08
1.87968e-08
2.65544e-08
3.55985e-08
4.59409e-08
5.77134e-08
7.15596e-08
8.86997e-08
1.10518e-07
1.3884e-07
1.96449e-07
2.85538e-07
3.97627e-07
6.03738e-07
8.30226e-07
1.0729e-06
1.15166e-06
1.12913e-06
9.73869e-07
7.76286e-07
6.35376e-07
5.72974e-07
5.67117e-07
6.01495e-07
7.23352e-07
9.94539e-07
1.51578e-06
2.40591e-06
3.83647e-06
6.81188e-06
1.50245e-05
4.42493e-05
0.000161115
0.000425516
0.000633886
0.00060009
0.000424303
0.00025416
0.000162065
0.000119248
0.000103074
0.000101587
0.000112075
0.000133156
0.000167831
0.000221506
0.000314025
0.000456448
0.000672174
0.00093675
0.00125069
0.00157802
0.0019074
0.00219597
0.00243785
0.00262984
0.00270395
0.002637
0.00247769
0.00226347
0.00188101
0.00128873
0.000474453
8.86722e-05
2.30763e-05
6.42272e-06
2.42438e-06
1.12558e-06
1.00022e-06
1.67345e-06
7.10528e-06
2.96134e-05
9.49946e-05
0.000142693
0.00014563
0.000138698
0.000115737
8.57163e-05
8.09943e-05
9.39427e-05
0.00010923
7.39935e-05
2.06922e-05
1.11612e-06
2.97677e-07
1.35563e-06
0.000607518
1.16078e-06
1.9089e-08
7.08947e-10
2.3993e-11
7.41916e-13
2.10385e-14
5.06404e-16
6.63748e-12
2.4365e-11
7.53994e-11
1.78504e-10
3.77986e-10
7.17069e-10
1.24037e-09
1.98392e-09
2.99019e-09
4.31137e-09
6.02746e-09
8.28448e-09
1.12861e-08
1.52167e-08
2.06348e-08
2.83931e-08
3.9889e-08
5.68296e-08
8.15066e-08
1.1325e-07
1.34013e-07
1.33479e-07
1.22055e-07
1.01622e-07
8.0842e-08
6.62513e-08
5.88982e-08
6.01152e-08
6.65611e-08
7.81718e-08
9.72243e-08
1.2657e-07
1.76134e-07
2.64725e-07
3.73265e-07
5.71397e-07
8.80136e-07
1.52009e-06
2.74706e-06
5.09882e-06
8.57775e-06
1.14666e-05
1.32901e-05
1.43402e-05
1.58343e-05
1.83995e-05
2.19225e-05
2.9223e-05
4.02453e-05
5.76424e-05
8.41552e-05
0.000135783
0.000216326
0.000349842
0.00054016
0.000783302
0.00105558
0.00132788
0.00160442
0.00185206
0.00209485
0.00232269
0.00253054
0.00264647
0.00269416
0.0027013
0.00259731
0.00223007
0.00125678
0.000379369
0.000124564
4.87432e-05
2.91133e-05
1.78715e-05
1.54485e-05
2.16588e-05
5.03906e-05
0.00012634
0.000178928
0.000175664
0.000158928
0.000129279
8.89477e-05
5.1403e-05
4.51954e-05
5.16087e-05
6.18526e-05
4.18775e-05
9.16596e-06
6.87149e-07
5.79452e-07
3.36645e-06
0.00268535
1.71889e-07
6.66301e-09
2.44676e-10
8.11102e-12
2.44978e-13
6.80621e-15
1.61573e-16
2.59872e-13
1.143e-12
4.13819e-12
1.10826e-11
2.60973e-11
5.38408e-11
1.00527e-10
1.73111e-10
2.81988e-10
4.42156e-10
6.764e-10
1.02111e-09
1.53026e-09
2.2847e-09
3.39315e-09
4.98254e-09
7.30084e-09
1.0507e-08
1.44242e-08
1.76998e-08
1.78889e-08
1.59274e-08
1.29205e-08
1.00528e-08
8.03252e-09
7.15532e-09
7.77504e-09
1.00135e-08
1.42667e-08
2.10341e-08
3.11987e-08
4.63066e-08
7.21707e-08
1.07979e-07
1.49091e-07
2.24093e-07
3.20726e-07
4.34054e-07
6.52904e-07
8.92395e-07
1.27781e-06
1.68907e-06
2.35797e-06
3.13363e-06
4.41158e-06
6.34781e-06
9.22557e-06
1.40887e-05
2.14998e-05
3.59677e-05
6.18568e-05
0.000107164
0.000184928
0.000310169
0.000481232
0.000691686
0.000903476
0.0011137
0.00131039
0.0014934
0.00168623
0.00189334
0.00210481
0.00224858
0.00236089
0.00247208
0.00262254
0.00265434
0.00208058
0.00105933
0.000504938
0.000263934
0.000181603
0.000129306
0.000120251
0.000147134
0.000223455
0.000255034
0.000219844
0.000163096
0.000123511
8.69004e-05
5.1105e-05
2.52343e-05
2.12031e-05
2.45246e-05
2.84434e-05
1.94579e-05
3.41798e-06
5.56213e-07
1.21051e-06
3.84703e-05
1.08146e-05
5.04507e-08
2.06397e-09
7.46414e-11
2.43193e-12
7.2559e-14
2.00465e-15
4.76658e-17
8.95379e-15
4.56552e-14
1.87074e-13
5.58652e-13
1.45058e-12
3.26492e-12
6.63535e-12
1.24645e-11
2.22054e-11
3.8121e-11
6.38431e-11
1.05083e-10
1.70776e-10
2.7502e-10
4.37999e-10
6.83903e-10
1.01817e-09
1.40564e-09
1.76623e-09
1.899e-09
1.7467e-09
1.42741e-09
1.10407e-09
9.15383e-10
9.46894e-10
1.28888e-09
2.0564e-09
3.55761e-09
7.93069e-09
1.6873e-08
3.14204e-08
5.25942e-08
8.07772e-08
1.15462e-07
1.55972e-07
2.31561e-07
3.20394e-07
4.17618e-07
5.82346e-07
7.79507e-07
1.02871e-06
1.40866e-06
1.86488e-06
2.59947e-06
3.62747e-06
5.11785e-06
8.04848e-06
1.28281e-05
2.04525e-05
3.53367e-05
6.25643e-05
0.000110214
0.000188971
0.000307263
0.000453796
0.000623002