/*--------------------------------*- C++ -*----------------------------------*\
| =========                 |                                                 |
| \\      /  F ield         | OpenFOAM: The Open Source CFD Toolbox           |
|  \\    /   O peration     | Version:  2.3.0                                 |
|   \\  /    A nd           | Web:      www.OpenFOAM.org                      |
|    \\/     M anipulation  |                                                 |
\*---------------------------------------------------------------------------*/
FoamFile
{
    version     2.0;
    format      ascii;
    class       volScalarField;
    location    "0.05";
    object      p;
}
// * * * * * * * * * * * * * * * * * * * * * * * * * * * * * * * * * * * * * //

dimensions      [1 -1 -2 0 0 0 0];

internalField   nonuniform List<scalar> 
5000
(
100698
100428
100181
100082
100038
99995.7
99945.1
99894.2
99842.5
99785.6
99738.5
99703.4
99672.8
99698.5
99709.9
99724.8
99733.5
99743.1
99742.7
99733.3
99657.9
99641.6
99634.8
99666.1
99707.6
99807.7
99836.2
99888
99918.4
99928.2
99986
99759.4
99779.7
99804.9
99822.2
99883.5
99851.4
99905.5
99897.8
99902.2
99900.4
99877
99853
99838.7
99829.2
99809
99759.3
99746.8
99760.4
99694.8
99747.4
99783.5
99811.3
99903
99876.8
99863.6
99953.6
99963.4
99789.6
99943.5
99958.9
99844.3
99946.2
99941.2
99916.8
99888.7
99857.7
99836.9
99810.9
99780.9
99783.3
99859.3
99921.6
100057
99878.9
99923.2
99767.9
99929.6
99781.9
99885.7
99821.5
99841.3
99874.4
99754.6
99842.7
99775.4
99854.2
99784.7
99830.7
99882.3
99931.8
99987.7
99975.4
99821.4
99968.8
99949.4
99926.7
99929
99846.7
99938.6
101395
100546
100188
100081
100034
99989.6
99943.2
99897.3
99847
99791.2
99741
99705.2
99689.5
99703.3
99711.7
99723.9
99734.1
99743.1
99744.5
99734.1
99660.1
99642.3
99637.6
99668.4
99707.3
99808.6
99836.4
99885.7
99915
99923.6
99975.2
99768.8
99779.1
99803.5
99818.7
99885.3
99844.9
99910.5
99897.2
99902.7
99897.9
99877.1
99854
99840.4
99830.4
99811.4
99761.3
99749.7
99756.3
99699.3
99746.4
99783.6
99808.6
99909.4
99870.4
99954.9
99962.5
99961.2
99967.1
99964.3
99971.7
99972.7
99963.1
99949.5
99924.5
99896
99861.1
99838.7
99812.6
99780.1
99782.5
99861
99920.4
100062
99875
99905.4
99946.6
99945.6
99932.6
99913.6
99940.9
99878.5
99907.9
99812.3
99870.4
99818
99868.2
99828.5
99836.4
99881.9
99931.6
99992.4
99984.6
99983.4
99985.4
99961.2
99971
99946.5
99976.6
99956.9
101268
100459
100106
100025
100001
99967.5
99937.3
99897.2
99849.7
99787.4
99747.2
99713.2
99690.3
99707.9
99718.2
99728.4
99742
99745.4
99743.8
99731.4
99663.7
99644.4
99642.3
99672.7
99714.4
99803.5
99835
99879.7
99905.5
99913.8
99951.2
99791.2
99770.6
99801.8
99812.5
99885.2
99836.4
99915
99897.4
99904.1
99900.4
99880.2
99856.1
99842.3
99834.6
99816.2
99759.7
99751.6
99746
99708.5
99744.1
99777.2
99809.9
99914
99867.6
99928.3
99952.9
99962.6
99962.2
99958.2
99972
99963.3
99954.3
99945.9
99921.9
99891
99859.9
99833.6
99821.6
99774.2
99777.3
99867.4
99924.4
100072
99902
99945.5
99954.3
99966.4
99948.2
99977.6
99988.2
99991.4
99993.1
99973.6
99958.1
99944.3
99916.5
99848.1
99857.9
99889.8
99932
100001
99988.8
99952.8
100005
100003
99997.2
99978.2
99993.4
99983.3
101129
100295
100045
99999.4
99979.9
99949.4
99928.7
99901.3
99855.1
99799.7
99762.1
99724.6
99709.4
99719.4
99726.3
99728.9
99736
99743.8
99741.4
99737.9
99667.2
99641
99646.9
99677.8
99716.1
99797.2
99836.4
99873.1
99893.1
99899.2
99922.9
99794.6
99767.6
99791.9
99794.1
99885.6
99833.3
99917.9
99895.7
99906.2
99897.3
99880.7
99862.3
99843.8
99838.9
99822.3
99764.8
99754.9
99748
99716
99738.1
99775.3
99802.5
99923.4
99861.3
99945.3
99958.3
99964.9
99968.1
99967.8
99973.2
99970
99961
99951.5
99927.6
99895.7
99860.6
99834.1
99816.1
99776.1
99773.2
99860
99925.8
100083
99901.9
99933.3
99974
99987.8
99993.6
99995
100005
100006
100005
99993.8
99984.9
99968.5
99931.6
99864.5
99866.1
99894.2
99931.8
100003
99990.1
100012
100010
99991.3
99991
99960.6
99995.1
99973.9
100750
100099
99903.6
99898.3
99917.6
99908.4
99902.4
99884.9
99848.8
99804.8
99761.9
99728.3
99712.6
99723.8
99728
99733.6
99740.6
99744.7
99738.7
99726
99686.2
99643.6
99649.8
99679.4
99724.1
99791.7
99831.1
99864.8
99880.4
99885.1
99898.3
99782.8
99781.1
99789.8
99778.3
99882.8
99831.5
99914.1
99890.7
99911.3
99909.1
99876.7
99873.3
99841.5
99844.7
99826.2
99759.4
99754.1
99742.6
99730
99727.1
99765.5
99798.3
99932.3
99856.9
99943.8
99953.4
99962.3
99963.3
99961.3
99972.3
99964
99956.2
99949.7
99925.9
99893.5
99857.5
99832.5
99814.6
99774.8
99772.3
99855.8
99917.3
100112
99897.6
100007
99982.1
99998.7
100000
100002
100009
100009
100008
99993.9
99981.4
99968.9
99922.1
99872.1
99862.4
99899
99933.5
100002
99986.4
100009
100005
99993.2
99993.1
100005
99997.9
99993.7
99790.6
99742.5
99768.8
99831.1
99881.2
99891.6
99894.3
99885.9
99858.1
99813.6
99768.2
99740.2
99728.3
99736.1
99730.8
99736.6
99739.1
99743.2
99738.4
99719.6
99723.4
99632.1
99645.7
99677.1
99733.2
99788.6
99821.4
99854
99866.7
99880.6
99862.8
99799.7
99773.9
99774.2
99750.5
99881.9
99825.2
99912.8
99884.9
99910.4
99904.6
99884.5
99884
99848.6
99854.9
99834.9
99758.9
99755.5
99747.7
99735.1
99721.7
99756.2
99789.6
99946.9
99846.4
99952.6
99956.4
99966.7
99968.1
99967.6
99973.9
99967.8
99960.6
99954.9
99929.5
99895.8
99858
99828.7
99811.9
99769.8
99775.8
99855.6
99892
100122
99890.4
100009
99982.4
100001
100006
100004
100011
100010
100010
99998.1
99988.9
99966.6
99922.9
99880.2
99856.7
99894.4
99931.5
99994.6
99985.6
100011
100009
99993.2
99993.1
99984.4
99994.2
99976.5
99663.5
99603.5
99680.8
99756.9
99808.1
99837
99851.6
99849.1
99839.3
99811.8
99764.3
99735.2
99729.6
99731.7
99733.4
99737.9
99739.4
99742.3
99734.5
99719.4
99727.5
99641.6
99654.2
99675.7
99746.9
99775.8
99819.6
99842.2
99858.3
99873.3
99845.6
99818.9
99728.9
99762.6
99735.4
99878.7
99817.5
99910.6
99881.4
99910.4
99912.6
99886
99887.5
99863.5
99855.9
99847.7
99759.1
99752.2
99743.8
99742.6
99716.9
99747.8
99778.1
99954
99836.9
99960.6
99949.5
99963.3
99964.5
99962.7
99973.1
99965.3
99958.8
99956.4
99928.9
99893.5
99853.5
99827.8
99811.6
99765
99777.9
99846
99880.5
100132
99885.2
100022
99990
100004
100006
100005
100012
100010
100011
99995.9
99986.7
99968
99916.6
99885.7
99848.6
99897
99932.6
99987.3
99991.8
100008
100006
99992.6
99992.7
99988.2
99997.6
99978.5
99136.4
99448.9
99571.2
99717.5
99783.1
99812.5
99836.9
99849.8
99845.8
99816.7
99757.3
99727.9
99738.6
99735.8
99741.8
99740.3
99734.4
99741.5
99747.6
99727.2
99741
99653.5
99654.4
99669.7
99751.2
99758.8
99819
99835.2
99857.5
99862.4
99842
99853.9
99703.6
99729.5
99701.5
99881.9
99806
99907.4
99873.3
99910.6
99914.3
99896.6
99883.4
99865.9
99855.3
99815.9
99808.9
99727.8
99752
99732.1
99705.6
99754.7
99762.9
99951.6
99834.6
99974.4
99949.1
99967
99968.2
99967.1
99974.5
99967.6
99961.6
99962.1
99931.8
99896.4
99853.6
99824.1
99804.3
99760.2
99779.9
99840.9
99884.4
100109
99901.4
100022
99985.9
100004
100008
100007
100013
100010
100011
100001
99989.9
99966.3
99914.9
99885.9
99844.4
99893.6
99926.7
99984.3
99985.6
100006
100007
99993.9
99992.8
99984.6
99991.1
99978.3
99279.8
99466.1
99581.3
99685.8
99733.2
99765.9
99791.6
99819.8
99806.6
99790.9
99746
99702.8
99741
99732.5
99739.5
99736.8
99731.7
99738.8
99751.5
99735.2
99751.4
99672.8
99661.2
99656.5
99754.7
99757.5
99815.6
99835.9
99861.3
99866.3
99832.9
99789.5
99753.3
99725.8
99679.8
99877.2
99826.7
99891.5
99872.2
99916.9
99917.6
99895
99894.7
99867.7
99864.1
99818.3
99783.4
99762.4
99732.5
99721.4
99710.9
99746.3
99750.8
99935.5
99839.2
99978
99941.4
99962.6
99964.5
99963.1
99973.6
99967.1
99961.6
99961.2
99929
99891.1
99848.8
99822.4
99803.7
99756
99776.5
99834.1
99876.5
100088
99924.6
100025
99985.6
100005
100007
100007
100014
100009
100012
99999.1
99987.9
99965.1
99913.1
99874.8
99846
99888.9
99928.4
99984.3
99987.1
100006
100007
99992.7
99992.4
99984.3
99996.7
99982.1
99376
99457.4
99598.7
99681.8
99740
99766.9
99769.5
99812.6
99808.4
99767.7
99745.7
99660
99759.8
99716.1
99735.6
99734
99734.3
99745
99776.6
99755.3
99733.9
99706.9
99645.4
99629.2
99764.9
99735.1
99828
99836.8
99861.1
99856
99840.9
99794.5
99775.9
99698.1
99688
99777.6
99891.6
99854.9
99871.7
99921.9
99924.5
99898.8
99895.9
99874
99866.3
99823.2
99785.3
99749
99739.3
99707.8
99709.5
99734.7
99742
99920.5
99843.8
99980.8
99939.7
99965
99966.7
99965.2
99975.8
99968.7
99963.9
99962.1
99931.7
99891.6
99845
99820
99796.5
99754.8
99779.9
99826.1
99874.9
100072
99933.8
100019
99984.6
100005
100008
100009
100012
100011
100011
100001
99989.7
99962.3
99910.5
99866
99851.4
99885
99923.7
99979.9
99989.9
100002
100006
99993.3
99992.4
99983.2
99996.6
99981.3
99402.5
99490.8
99613.6
99680.6
99735.6
99754.6
99765.1
99769.5
99786.4
99756.9
99719.4
99591.2
99771.3
99693.4
99735.6
99738.5
99730.7
99741.8
99782.5
99777.8
99752.7
99707
99645.7
99599
99774
99726.8
99859.6
99851.9
99865.6
99869.1
99836.5
99823.6
99762.1
99705.5
99673.4
99708.4
99990.4
99822.3
99881.9
99926.7
99924.7
99901.4
99896.9
99876.4
99865.7
99825.1
99783
99750.1
99733.2
99712.4
99699.3
99729.5
99738.3
99908.8
99850.8
99976.3
99932.5
99960.5
99964.3
99962.2
99975.8
99968.5
99960.7
99960.2
99928.8
99889.2
99843.4
99811.3
99804.5
99749.5
99779.4
99819.1
99867.6
100064
99934.4
100010
99986.1
100006
100007
100007
100015
100011
100009
99999.6
99988.3
99960
99909.9
99853.4
99855.7
99878.3
99922.7
99978.4
99990.7
100002
100008
99993.3
99992.8
99983.3
99995.7
99985
99482.9
99583.1
99631.6
99692.5
99729.1
99754.1
99763.2
99770.7
99779.6
99763.3
99713.8
99683.8
99711.4
99714.1
99727.1
99732.6
99735.6
99743.9
99780.4
99776.1
99763.7
99690.5
99680.7
99610.7
99694.9
99732.8
99882.6
99850.1
99858.6
99863.2
99868
99799.8
99755.5
99718.7
99666.3
99714
99970.9
99822
99886.4
99926.5
99926.2
99897.1
99899.4
99881.3
99867.4
99819.6
99780.8
99745.7
99721.2
99724.4
99687.7
99722
99735.8
99897
99861.5
99968.5
99930.8
99960.1
99965.3
99962.7
99975.6
99968.7
99961.2
99960.7
99932.7
99885.9
99842
99804.9
99800.9
99745.8
99776.1
99815.4
99857.8
100057
99933.2
100001
99985.9
100004
100008
100008
100016
100010
100008
99999.7
99989.1
99957.3
99907.3
99845.5
99861.2
99872
99920.4
99975.3
99991.6
100001
100007
99994.1
99992.1
99984.3
99994.6
99985.6
99462.9
99554.2
99609.9
99673.2
99716.3
99741.5
99756
99764.6
99772.1
99756.8
99727.7
99687.8
99701.1
99718.6
99729
99735.2
99737.5
99744.7
99774.9
99779.8
99759.7
99710.3
99682.4
99637.3
99699.9
99745.7
99882.7
99855
99864.3
99887.5
99875.1
99804.7
99741.3
99724
99647.5
99706.6
99920.5
99832.8
99884.5
99931.4
99919.1
99892.8
99898.2
99877.5
99871
99829
99784.7
99738.7
99717.2
99726.9
99684.9
99720.6
99734.8
99886.6
99875.3
99958.9
99925.7
99957.1
99962.1
99961.9
99969.1
99967.1
99958.2
99958.6
99934
99881.9
99840.2
99796.4
99774.1
99752
99775.4
99817.6
99856.3
100041
99936.1
99993.4
99987.6
100004
100007
100009
100015
100008
100006
99998.4
99987
99955
99905.1
99839.9
99859.8
99865.8
99918.6
99973.7
99990.7
100003
100006
99994.4
99992.8
99984.6
99994.1
99988.5
99596.7
99620.4
99654.2
99693.6
99722.1
99744.1
99757
99765.9
99768.8
99756
99736.7
99721.6
99722.2
99725.4
99729.3
99735.4
99738.9
99746.8
99767.4
99773.1
99752.5
99719.6
99687.7
99674.6
99709.2
99752.9
99863.3
99861
99875.8
99892.9
99861.1
99818.6
99757.4
99684.7
99658
99716.3
99872.8
99851.5
99886.5
99931.4
99912.9
99897.9
99897.8
99883.8
99872.6
99828.8
99782.9
99732.1
99713.6
99717.2
99683.7
99714.3
99734.3
99878.3
99880.9
99945.7
99926.4
99956
99963.5
99961.1
99969.1
99967
99960
99956.6
99928.5
99871.7
99838.1
99791
99772.6
99753.8
99771.8
99818
99854.8
100023
99943.2
99983.8
99986.6
100003
100004
100010
100011
100009
100005
99997.4
99985.9
99953.2
99901.6
99840.1
99857.1
99869
99915.4
99971.1
99989.9
100004
100005
99995.5
99992.7
99985
99992.5
99989.2
99578.7
99621.7
99651.8
99694
99721.3
99741.7
99754.9
99763.9
99763.6
99757.9
99742.6
99728.3
99724
99730.7
99730.6
99734.8
99738.9
99744.7
99762.2
99767.5
99751.9
99726
99713.2
99689.7
99712.1
99772.5
99848.6
99871.1
99884.3
99893.8
99850.1
99813.2
99751.6
99680.9
99692.4
99726.4
99840.3
99852.6
99889.1
99926.6
99910.4
99898.2
99891.9
99881.6
99874
99827.7
99779.6
99727
99708.9
99686.1
99686.7
99708.6
99732.3
99871.7
99873
99938.7
99923.6
99953.2
99960.9
99955.2
99963.8
99965.9
99959.2
99952.7
99930.9
99869.3
99837.9
99786.2
99763.4
99750.9
99774.3
99817.8
99862.2
100006
99943
99979.5
99986.5
100001
100000
100010
100007
100009
100004
99995.7
99983.9
99951.4
99898.5
99846.2
99848.1
99879.7
99911.3
99968.4
99989
100005
100004
99995.2
99993.3
99985.5
99992.6
99991.6
99634.3
99656.5
99680.3
99708.5
99730
99746.8
99758.3
99765.1
99765.3
99759.8
99747.7
99737.5
99731.5
99733.6
99731.6
99734.7
99738
99743
99756.2
99757.3
99748.2
99731.1
99720.2
99716.3
99738.1
99781.2
99836.7
99871
99877.2
99890.2
99838.1
99808.4
99741.3
99701.5
99706.2
99751.6
99825
99851.5
99885.7
99918
99893.5
99897.6
99892
99883.4
99880.7
99816.3
99766.2
99727.3
99707.2
99682.8
99693.2
99702.4
99731.9
99876.7
99864.9
99931.6
99924.4
99950.5
99957.8
99955.3
99960.2
99966.5
99961.1
99952.3
99927.9
99867.8
99827.8
99793.7
99758.8
99749
99774.5
99818.4
99863.6
99985.1
99939.9
99974.4
99985.3
99997.2
99999.5
100007
100005
100007
100004
99994.3
99983.5
99950.9
99898
99853.2
99845.7
99881.1
99910.1
99965.8
99987.4
100005
100003
99995
99993.1
99986.1
99993
99992.5
99650.4
99672.1
99691.4
99717.4
99735.5
99750.4
99760.5
99766.4
99765.9
99760.9
99750.3
99741.1
99734.8
99734.3
99732.1
99733.7
99736.5
99740.8
99751.2
99752.5
99748.1
99736.7
99730.8
99727.6
99753.5
99793.7
99836.6
99867.4
99872.8
99880.9
99837.8
99808.1
99737.4
99717.8
99726.2
99762.8
99813.8
99853.9
99894.9
99905.8
99898.3
99896
99890.2
99879.2
99879.7
99822.1
99762.8
99716.6
99703.1
99666.2
99698.2
99706.5
99727.3
99879.3
99859.1
99922.4
99922.5
99945.6
99952.6
99954.7
99957.6
99965.1
99961.6
99946.3
99925
99864.8
99830.1
99795.5
99757.1
99753.3
99780.5
99816.4
99870.6
99967.6
99942.3
99972.5
99984.5
99992.9
99999.2
100005
100005
100004
100003
99992.2
99982
99949.5
99897.9
99861.9
99850.2
99877.9
99913.3
99963
99986.6
100003
100002
99995.2
99993.4
99986.4
99993.5
99994.1
99686.1
99698.1
99712.2
99730.6
99745.4
99757.6
99765.7
99769.8
99768.3
99762.9
99753.3
99744.6
99737.2
99734.5
99731.6
99732.4
99734.5
99738.4
99744.8
99747.8
99746.2
99738.8
99737.8
99738.6
99759.9
99794
99830.5
99856.1
99866.2
99872.5
99837
99810.6
99757.9
99737.2
99741.8
99777.3
99813.6
99861.3
99884.7
99910
99894.9
99892.3
99887.7
99878.2
99874.1
99819.3
99782
99700.3
99696
99661.5
99702.6
99719.2
99735
99864.3
99859.3
99914.9
99919.9
99942
99951.1
99952.8
99954.6
99963.7
99960.5
99947.3
99922.8
99861.8
99834
99793.7
99762.7
99764
99782.2
99824.4
99871.7
99951.3
99944.4
99969.3
99982.8
99991.7
99999.2
100003
100004
100000
100002
99990.6
99981
99950.1
99901
99867.8
99852.6
99879.6
99915.2
99960.1
99983.8
100000
99999.6
99993.8
99993.1
99986.9
99993.8
99994.7
99703.5
99718.2
99726.1
99740.9
99753
99763.7
99770.4
99772.9
99770.3
99763.9
99754.3
99745.2
99737.5
99734.1
99730.7
99730.8
99732.4
99736.2
99741.3
99744.9
99744.9
99741.5
99742.7
99746.8
99767.6
99796.3
99826.3
99848.3
99860.7
99864.7
99838.7
99818.1
99774.2
99760
99755.4
99789.8
99822.1
99859.7
99885.9
99902.2
99893.7
99890.4
99884.7
99875.2
99864.1
99816.7
99792.2
99703.5
99702.1
99677.5
99701.8
99727.4
99744.7
99855.7
99862.9
99908.1
99917.1
99933.3
99945.6
99951.8
99954.7
99957.1
99956.2
99946.8
99918.3
99865.9
99829.8
99796.1
99768.7
99768.8
99794.4
99830.5
99873.7
99937.2
99944.8
99967
99980.6
99990.8
99998.4
100001
100002
99998.9
99998.1
99990.6
99979.1
99952.3
99904.8
99879.9
99858.5
99881.7
99917.1
99957.5
99983.2
99996.6
99998.1
99993.7
99993
99986.9
99994.2
99995.2
99758.8
99738.1
99740.2
99752.1
99762.8
99772.1
99776.4
99776.9
99772.5
99764.9
99754.9
99745.3
99737
99732.4
99729
99728.7
99730.3
99733.5
99738.4
99742.3
99743.9
99743.8
99747.6
99753.8
99772.5
99796.9
99822.9
99842.6
99856.2
99859.1
99839.5
99825.2
99785.2
99776.4
99774.6
99801.9
99821.9
99860.3
99879
99894
99889.9
99886.4
99881
99871.6
99858.7
99814.5
99774.6
99722.9
99709.1
99685.4
99707.1
99739.8
99754.8
99841.7
99864.7
99903
99916
99934.3
99944.2
99948.1
99954.5
99954
99955.8
99937.3
99919.1
99863.6
99834.7
99801.9
99778.1
99779.5
99807.2
99835.1
99876.4
99930.7
99945
99965.8
99976.7
99989.8
99997.1
99999.9
100000
99998.5
99995.8
99989.5
99976.3
99953.5
99908.1
99885.6
99865.6
99884.8
99918.7
99955.8
99980.3
99993.3
99996.5
99992.2
99992.7
99987.2
99994.9
99995.6
99764.9
99755.4
99756.9
99767.6
99776.2
99782.5
99783.7
99781.1
99774.5
99765
99754
99743.9
99735.2
99730.1
99726.6
99726.4
99727.9
99731.3
99736.1
99740.7
99743.9
99746.6
99752.1
99760.6
99777.9
99799.4
99822.1
99839.7
99852.3
99856
99839.7
99826.7
99800.5
99790
99784.2
99810.7
99824.5
99859.3
99874.6
99888.8
99885.9
99883.1
99877.2
99867.3
99852
99811.6
99770.4
99732.8
99714.3
99704.6
99720.1
99747
99768
99840.9
99862.1
99899.4
99911.9
99928.6
99939.2
99946.2
99952.3
99949.9
99952.7
99931.6
99916.4
99864.5
99837.2
99808.7
99784.9
99796.6
99812.1
99841.6
99879.2
99924.1
99944
99962.9
99976.2
99988.8
99995.3
99998.1
99998.9
99997.1
99995
99987.1
99974.8
99954.3
99914.9
99891.4
99878.3
99890.9
99921.5
99955.2
99978.2
99989.5
99995.3
99991.5
99992.1
99987.4
99995.4
99995.8
99781.8
99778.7
99780.5
99787.9
99791.7
99793.1
99790.3
99782.3
99772.3
99760.5
99748.7
99738.1
99730
99725
99722.4
99722.5
99724.8
99728.9
99734.3
99740.2
99745
99750.1
99757
99766.9
99783
99801.8
99822.1
99837.7
99850.3
99852.7
99841.3
99829.9
99809.9
99802.1
99795.6
99815.4
99827.6
99854.7
99869.2
99880.6
99879.9
99878.1
99872.9
99864.2
99849.7
99808.3
99772.5
99744.7
99724.8
99719.3
99732.2
99760.2
99777.5
99843.1
99863.8
99893
99908
99923.7
99938
99942.8
99952.4
99947.2
99948.7
99929.1
99915.5
99865
99841.6
99817.4
99798.1
99806
99821.9
99848.6
99884
99919.5
99943.5
99960.1
99975
99987.2
99993.4
99996.7
99997.3
99995.9
99992.6
99985.8
99973.7
99953.9
99919.7
99896.3
99887
99896.6
99924.7
99953.3
99976.4
99986.8
99993.6
99990.5
99991.7
99987.9
99995.9
99996.1
99799.6
99800.4
99800.2
99802.2
99799.7
99794
99783.7
99772.5
99760.2
99747.8
99736.7
99727.5
99721
99717.9
99717
99718.9
99722.8
99728.3
99734.8
99741.6
99747.9
99754.7
99763
99773.9
99788.8
99805.7
99823.4
99837.3
99848.3
99850.5
99842.9
99833.2
99819.1
99811.8
99806.1
99819.6
99830.5
99851.5
99864
99873.6
99874.3
99873.1
99868.2
99860.3
99846.8
99809.8
99776.6
99749.7
99737.4
99737.8
99746.2
99772.3
99789.3
99849.1
99862.2
99890.1
99906
99919.9
99933.6
99940.2
99946
99945.8
99946.9
99926.1
99912.9
99862.6
99848.8
99825.6
99812.1
99816.9
99831.2
99856.1
99886.4
99915.6
99940.5
99957.4
99974.3
99984.5
99991.9
99994.5
99995.6
99994.3
99991.1
99984
99972.6
99955.1
99925
99905.5
99896.7
99903.8
99927.7
99953
99974.1
99984.4
99992.1
99989.9
99991.1
99987.9
99996.4
99996.3
99805.6
99805.1
99803.7
99800
99792.9
99781.6
99768.5
99754.9
99742.1
99730.6
99721.6
99715.1
99711.8
99711.4
99713.3
99717.4
99723.2
99730.1
99737.6
99745.5
99752.9
99761
99770
99781.2
99794.7
99809.4
99824.8
99836.5
99846.5
99848.1
99843.7
99835.7
99825.2
99818.5
99813.9
99822.8
99830.9
99846.5
99856.8
99865.3
99867
99867.3
99863
99856.1
99843.8
99813.7
99776
99765.1
99749.6
99751.2
99758.2
99784
99801.1
99846.5
99860.9
99890
99904.9
99916.8
99931.1
99936.9
99943.7
99942.1
99940.6
99923.9
99906.6
99873.2
99854.9
99835.9
99825.4
99826.2
99840.8
99864.8
99892.4
99914.6
99939.5
99956.5
99972.3
99982.7
99990.4
99992.7
99993.9
99992.6
99989
99982.6
99971.7
99955.5
99929.2
99912.1
99904.8
99910.6
99930.7
99952.8
99972.6
99981.7
99990.4
99988.8
99990.8
99989.4
99996.3
99996.5
99795.9
99794.7
99790.5
99783.4
99772.8
99759.6
99746.3
99733.9
99723.1
99714.6
99708.9
99705.9
99706
99708.4
99713
99719.3
99726.8
99735
99743.7
99752.2
99760.5
99769.2
99778.6
99789.2
99801.1
99813.6
99826
99835.8
99843.7
99845.4
99842.7
99836.5
99828.6
99822.8
99818.9
99824.7
99831
99842.1
99850.7
99857.8
99860.6
99861.4
99858.1
99851.9
99840.6
99818
99796.8
99780.4
99763.6
99765.5
99771.3
99795.5
99815.2
99851
99863.6
99887.2
99903
99914.5
99927
99933.6
99938.3
99940
99937
99921.4
99907.2
99878.5
99863.9
99843.1
99835.6
99836.8
99850.6
99874.9
99894.1
99917.4
99937.8
99954.8
99969.9
99981.2
99988.2
99990.7
99991.9
99990.7
99987
99980.8
99970.6
99955.7
99933.6
99918.3
99911.6
99917.2
99934.3
99953.6
99971.1
99979.8
99988.5
99987.8
99989.9
99987.8
99996.5
99996.4
99771
99768.8
99763.8
99755.8
99745.6
99734.6
99723.8
99715
99707.9
99703.7
99701.8
99702.5
99705.6
99710.7
99717.4
99725.4
99734.1
99743.2
99752.2
99761.1
99769.7
99778.5
99787.4
99797
99807.1
99817.1
99826.9
99834.5
99840.7
99842.2
99840.7
99835.7
99829.9
99824.6
99821.8
99824.8
99829.5
99837.3
99844.3
99850.5
99853.6
99855.2
99852.5
99847.5
99837
99818.9
99800.4
99789.5
99776
99777
99783.9
99806.4
99825.2
99851.9
99864.3
99883.8
99900.5
99911.9
99923
99929.6
99934.4
99932.6
99932.9
99918.5
99907.3
99882.5
99871.8
99852.5
99846.3
99847.4
99858.7
99879.3
99898.5
99919.4
99937.5
99952.9
99967.4
99979.3
99986.4
99988.7
99989.9
99988.7
99985.2
99979.1
99969.3
99955.6
99936.3
99923
99917.8
99922.2
99937.1
99954.4
99970
99978.5
99986.4
99986.7
99989.5
99988.5
99996.3
99996.4
99742.6
99740.4
99735.7
99729
99721.7
99714.3
99707.9
99703.6
99700.9
99700.7
99702.2
99705.9
99711.4
99718.4
99726.5
99735.3
99744.6
99753.9
99763.1
99771.9
99780.4
99788.7
99796.9
99805.1
99813.1
99820.7
99827.7
99833.3
99837.7
99838.9
99837.7
99833.9
99829.2
99824.9
99822.6
99824.4
99828
99833.7
99839.4
99844.8
99848
99849.7
99847.8
99843.7
99834.4
99820
99806
99793
99784.6
99785.7
99791.6
99809.9
99828.7
99849.8
99863.4
99881.5
99897.1
99908.8
99918.5
99925.2
99930
99929.7
99928
99916.2
99905.6
99885.4
99875.5
99857.5
99854.2
99855.3
99866.7
99883
99902.2
99920.9
99937.9
99950.6
99967
99977.1
99983.5
99986.3
99987.6
99986.5
99983.3
99977.2
99968.1
99955.6
99939.6
99928
99923
99927.1
99939.7
99955
99968.8
99976.7
99984.6
99985.6
99988
99987.5
99995.8
99996.1
99718.3
99716.9
99714.1
99710.8
99707.5
99704.1
99702.3
99701.7
99702.7
99705.4
99709.5
99715.2
99722
99730
99738.7
99747.9
99757.2
99766.4
99775.2
99783.7
99791.7
99799.3
99806.3
99812.8
99818.8
99824.1
99828.9
99832.5
99835.3
99835.9
99834.8
99831.7
99827.9
99824.2
99822.4
99823.2
99826
99830.3
99835.1
99839.7
99842.7
99844.7
99843.5
99840.4
99832.7
99822.1
99809.5
99800.5
99795.2
99795.1
99802.4
99816.1
99829.8
99848.9
99863.4
99878.9
99893.9
99904.8
99913.9
99920.3
99924.4
99923.7
99922.6
99913
99904.9
99887.9
99879
99866.4
99863.3
99863.2
99873.1
99887.5
99904.9
99922.5
99939.1
99951.9
99966.4
99974.6
99981
99983.6
99985.3
99984.2
99981.4
99975.6
99967.2
99955.5
99941.3
99931.5
99927.3
99930.8
99941.9
99955.6
99968
99975.6
99982.5
99984.5
99987.8
99987.7
99995.6
99995.9
99707.3
99706.8
99706.1
99705.6
99705
99705.2
99706.4
99708.8
99712.2
99716.9
99722.5
99729.1
99736.5
99744.7
99753.4
99762.4
99771.4
99780.3
99788.6
99796.4
99803.6
99810.2
99815.8
99820.6
99824.4
99827.6
99830.3
99832.3
99833.6
99833.5
99832.2
99829.5
99826.3
99823.3
99821.8
99822.3
99824.5
99827.8
99831.7
99835.6
99838.4
99840.5
99839.9
99837.7
99831.7
99823.7
99814.7
99806.6
99803.5
99804.2
99810.2
99821.3
99833.5
99849
99862.6
99876.7
99889.9
99900.2
99908.5
99914.5
99918.4
99918.6
99917.5
99909.6
99902.1
99888.9
99880.9
99870.9
99868.7
99869.5
99879.1
99892.3
99909.4
99924.5
99940.3
99951.9
99964.3
99971.9
99978
99980.7
99982.7
99981.9
99979.6
99974.1
99966.3
99955.8
99944.3
99935.5
99931.5
99934.3
99944
99955.8
99966.9
99974
99980.8
99983.1
99985.9
99986.6
99994.9
99995.8
99709.8
99710
99710.6
99711.5
99713
99715.4
99718.6
99722.5
99727.2
99732.5
99738.5
99745.1
99752.4
99760.4
99768.9
99777.6
99786.3
99794.6
99802.3
99809.2
99815.4
99820.6
99824.7
99827.7
99829.7
99831.1
99832.2
99832.7
99832.8
99832
99830.4
99827.9
99825.1
99822.5
99821.2
99821.4
99823
99825.6
99828.7
99832
99834.6
99836.5
99836.5
99835.3
99831
99826
99818.7
99814.2
99810.3
99812.3
99816.7
99825.3
99835.8
99849.2
99862
99874.4
99886.3
99895.3
99902.9
99908.3
99911.7
99912.5
99911.4
99905.5
99900.4
99891.1
99885.8
99879.4
99878.2
99878.1
99886.4
99897.1
99911.9
99925.4
99939.9
99951.3
99962.1
99969.3
99975.1
99978.1
99980.4
99980
99978
99972.8
99965.8
99956.2
99945.4
99937.8
99934.7
99937.5
99946
99956.3
99966.1
99972.7
99979.3
99981.7
99985.6
99986.5
99994.5
99995.5
99721.4
99722
99723.3
99725.3
99728
99731.3
99735.2
99739.7
99744.5
99749.8
99755.5
99762
99768.9
99776.5
99784.7
99793.1
99801.3
99809.1
99816
99821.9
99826.8
99830.6
99832.9
99834.2
99834.4
99834.3
99833.8
99833.2
99832.3
99831
99829.1
99826.8
99824.2
99821.9
99820.6
99820.6
99821.7
99823.7
99826.2
99828.9
99831.1
99832.9
99833.3
99832.7
99830.2
99827.1
99822.7
99819
99817.2
99818.1
99822.1
99829.2
99838.5
99850.1
99861.7
99872.6
99883.1
99891.3
99897.9
99903.1
99906.3
99907.7
99907.2
99903.1
99898.9
99892
99887.4
99882.4
99882.6
99884.6
99892.9
99902.7
99915.8
99927.6
99940.3
99950.1
99959.8
99966.4
99972.2
99975.5
99978.1
99977.7
99976.4
99971.7
99965.3
99957
99949
99943
99940.4
99941.5
99948.2
99956.2
99964.5
99970.6
99976.9
99979.6
99983.8
99985.6
99993.9
99995.7
99738.6
99739.3
99740.8
99743.1
99746
99749.5
99753.4
99757.6
99762.2
99767.1
99772.5
99778.4
99785
99792.3
99800.1
99808
99815.7
99822.8
99828.8
99833.5
99836.8
99838.9
99839.4
99838.9
99837.7
99836.2
99834.8
99833.3
99831.8
99830.1
99828.2
99825.8
99823.4
99821.3
99820
99819.7
99820.5
99822
99824
99826.2
99828.1
99829.7
99830.3
99830.4
99829
99827.6
99824.6
99822.9
99821.5
99822.9
99826.4
99832.6
99841
99851.3
99861.9
99871.7
99880.9
99888.5
99894.3
99899.3
99902.1
99903.7
99903.4
99900.9
99898.1
99893.9
99891.1
99888.4
99889.1
99891.2
99898.5
99907
99918.4
99928.7
99939.7
99948.8
99957.4
99964.2
99969.6
99973.4
99975.8
99976.3
99974.5
99969.9
99964.7
99957.8
99950.9
99945.5
99943.5
99944.7
99950
99956.6
99963.8
99969.3
99975.3
99978.1
99983.2
99985.1
99993.4
99995.4
99756.7
99757.5
99759.1
99761.3
99764.2
99767.5
99771.2
99775.2
99779.5
99784.1
99789.1
99794.7
99800.8
99807.6
99814.7
99821.9
99828.9
99835.2
99840.1
99843.2
99844.5
99844.6
99843.4
99841.4
99838.8
99836.4
99834.1
99832.1
99830.3
99828.5
99826.5
99824.4
99822.1
99820.2
99818.8
99818.5
99819
99820.2
99821.7
99823.5
99825.1
99826.5
99827.3
99827.7
99827.2
99826.7
99825.8
99825.1
99825.3
99827
99830.8
99836.7
99844.5
99853.5
99862.9
99871.8
99880
99887
99892.4
99896.8
99899.5
99900.9
99900.8
99899.3
99897.3
99894.4
99892.5
99891.1
99892.9
99896.4
99903.4
99911.2
99921.3
99930.2
99939.7
99947.6
99955.5
99961.5
99967.6
99970.8
99973.9
99973.4
99971.7
99968.2
99963.9
99958.3
99953.2
99948.8
99947
99947.6
99951.4
99956.5
99962.6
99967.5
99973.2
99976.2
99981.7
99984.6
99992.8
99995.6
99774.7
99775.5
99777
99779.2
99782
99785.3
99788.9
99792.7
99796.8
99801.1
99805.8
99810.7
99816
99821.7
99827.7
99833.7
99839.3
99843.6
99846.7
99848.1
99847.8
99846.4
99843.8
99840.5
99837
99833.8
99831.2
99828.9
99827
99825.2
99823.7
99821.8
99820
99818.2
99817.2
99816.9
99817.4
99818.3
99819.7
99821.1
99822.6
99823.8
99824.5
99825.5
99825.8
99826.5
99826.6
99827.6
99828.9
99831.7
99835.8
99841.6
99848.8
99857
99865.2
99873.2
99880.4
99886.9
99891.7
99895.7
99898
99899.4
99899.4
99898.8
99897.7
99896.5
99895.7
99895.6
99897.5
99901
99907.3
99914.3
99922.8
99930.5
99938.6
99945.8
99953.3
99960
99965
99969.1
99970.8
99970.8
99969.5
99966.4
99963
99958.3
99953.9
99950.3
99949
99949.5
99952.7
99956.8
99962
99966.4
99971.8
99974.9
99981.1
99983.8
99992.3
99995.3
99791.8
99792.6
99794.1
99796.4
99799.1
99802.4
99805.8
99809.6
99813.5
99817.5
99821.6
99825.8
99829.7
99833.8
99837.7
99841.3
99844.1
99846.2
99847.3
99847.2
99845.7
99843.1
99839.4
99835.5
99831.4
99828.1
99825.2
99823.1
99821.3
99820
99818.9
99817.7
99816.4
99815.4
99814.6
99814.7
99815.2
99816.3
99817.4
99818.9
99820.2
99821.6
99822.9
99824.4
99825.7
99827.1
99828.6
99830.5
99833.1
99836.7
99841.4
99847.2
99853.9
99861.2
99868.6
99875.7
99882.1
99887.8
99892
99895.5
99897.4
99898.7
99898.8
99898.6
99898.1
99897.6
99897.6
99898.4
99901.1
99905
99910.9
99917.2
99924.5
99931
99938.4
99944.7
99951.7
99957
99963.1
99965.5
99967.8
99967.8
99966.9
99964.6
99961.7
99958
99954.6
99951.7
99950.5
99950.7
99953.1
99956.4
99960.8
99964.8
99970
99973.6
99980
99983.7
99992.1
99995.6
99807.8
99808.6
99810
99812
99814.5
99817.2
99820.3
99823.6
99826.9
99830.1
99833.2
99836
99838.2
99840
99841.3
99842.3
99842.8
99842.8
99842
99840.2
99837.5
99833.9
99829.8
99825.6
99821.7
99818.6
99816.2
99814.4
99813.3
99812.6
99812.2
99811.9
99811.7
99811.5
99811.6
99812.1
99813
99814.1
99815.5
99817
99818.8
99820.7
99822.6
99824.7
99826.8
99829.2
99831.5
99834.5
99837.8
99842
99846.9
99852.7
99858.9
99865.5
99871.9
99878.2
99883.6
99888.7
99892.5
99895.9
99897.7
99899.2
99899.6
99899.9
99899.9
99900.1
99900.8
99902.2
99904.8
99908.6
99913.8
99919.1
99925.1
99930.8
99936.8
99943.1
99949.4
99955.4
99959.3
99962.8
99964.7
99965.4
99964.8
99962.9
99960.6
99957.5
99954.6
99952.2
99951.3
99951.5
99953.5
99956.4
99960.4
99964
99969.2
99972.9
99979.6
99983.2
99991.7
99995.3
99818.9
99819.5
99820.6
99822.1
99824.1
99826.3
99828.7
99831.3
99833.6
99835.7
99837.3
99838.4
99838.8
99838.8
99838.1
99837.1
99835.5
99833.3
99830.6
99827.4
99823.7
99819.7
99815.5
99811.7
99808.2
99805.8
99804.1
99803.3
99803
99803.2
99803.8
99804.7
99805.8
99806.9
99807.7
99809
99810.1
99811.8
99813.4
99815.7
99817.8
99820.3
99823
99825.7
99828.6
99831.8
99835.2
99838.7
99842.6
99847
99852
99857.4
99863
99868.8
99874.3
99879.6
99884.4
99888.9
99892.6
99895.9
99898.1
99899.9
99900.8
99901.4
99901.6
99902.3
99903.3
99905.2
99908.1
99911.7
99916.4
99920.8
99925.9
99930.7
99936.3
99941.5
99947.5
99951.8
99956.5
99959.3
99961.7
99962.4
99962.1
99960.8
99958.8
99956.3
99954.1
99952.2
99951.5
99951.8
99953.5
99956
99959.6
99963.2
99968.3
99972.5
99979.2
99983.4
99991.8
99995.5
99822
99822.4
99823.2
99824.4
99825.9
99827.5
99829.2
99830.7
99832.1
99832.9
99833.3
99833
99832.1
99830.4
99828
99825.1
99821.7
99818
99814.1
99810
99806
99802
99798.3
99795.1
99792.6
99791
99790.3
99790.5
99791.3
99792.7
99794.7
99797
99799.6
99801.8
99803.6
99805.4
99807.3
99809.1
99812
99814.3
99817.2
99820.1
99823.3
99826.6
99830.2
99834
99838