/*--------------------------------*- C++ -*----------------------------------*\
| =========                 |                                                 |
| \\      /  F ield         | OpenFOAM: The Open Source CFD Toolbox           |
|  \\    /   O peration     | Version:  2.3.0                                 |
|   \\  /    A nd           | Web:      www.OpenFOAM.org                      |
|    \\/     M anipulation  |                                                 |
\*---------------------------------------------------------------------------*/
FoamFile
{
    version     2.0;
    format      ascii;
    class       surfaceScalarField;
    location    "0.05";
    object      phi;
}
// * * * * * * * * * * * * * * * * * * * * * * * * * * * * * * * * * * * * * //

dimensions      [1 0 -1 0 0 0 0];

internalField   nonuniform List<scalar> 
9850
(
1.39734e-06
-4.75685e-08
1.34859e-06
2.04588e-08
1.30022e-06
4.09819e-08
1.26115e-06
3.83553e-08
1.24076e-06
2.07549e-08
1.23795e-06
2.07756e-09
1.24031e-06
-4.55957e-09
1.25095e-06
-1.39236e-08
1.27148e-06
-2.50346e-08
1.29454e-06
-2.83853e-08
1.31822e-06
-2.9497e-08
1.34136e-06
-2.88706e-08
1.34987e-06
-1.34352e-08
1.35302e-06
-7.0921e-09
1.35509e-06
-4.85008e-09
1.35569e-06
-2.28872e-09
1.35459e-06
3.07205e-10
1.3548e-06
-3.37204e-10
1.35659e-06
-1.72518e-09
1.35868e-06
-1.94695e-09
1.34802e-06
1.13659e-08
1.3255e-06
2.34131e-08
1.27696e-06
4.88791e-08
1.21168e-06
6.46444e-08
1.1599e-06
5.0796e-08
1.14709e-06
1.20839e-08
1.14245e-06
4.6698e-09
1.14676e-06
-3.46783e-09
1.16505e-06
-1.65389e-08
1.21292e-06
-4.59502e-08
1.28369e-06
-6.94816e-08
1.29077e-06
-7.21498e-09
1.27879e-06
1.19807e-08
1.23866e-06
3.99527e-08
1.16605e-06
7.2967e-08
1.11091e-06
5.43825e-08
1.09087e-06
1.92301e-08
1.10199e-06
-1.31116e-08
1.12987e-06
-2.95799e-08
1.18365e-06
-5.56108e-08
1.24746e-06
-6.51187e-08
1.28713e-06
-4.08057e-08
1.29858e-06
-1.21972e-08
1.30058e-06
-2.61512e-09
1.30316e-06
-2.87207e-09
1.3052e-06
-2.2208e-09
1.30433e-06
7.82508e-10
1.31234e-06
-8.19895e-09
1.32364e-06
-1.12342e-08
1.30109e-06
2.19312e-08
1.22574e-06
7.56216e-08
1.10443e-06
1.21606e-07
1.033e-06
7.25911e-08
1.03336e-06
-1.06913e-10
1.04381e-06
-9.56396e-09
1.0523e-06
-9.53848e-09
1.07242e-06
-2.11778e-08
1.10755e-06
-3.69347e-08
1.12034e-06
-1.52036e-08
1.15042e-06
-3.36581e-08
1.19438e-06
-4.87009e-08
1.22873e-06
-4.00188e-08
1.27837e-06
-5.58694e-08
1.33826e-06
-6.41534e-08
1.40472e-06
-6.97902e-08
1.4807e-06
-7.41887e-08
1.55703e-06
-6.54553e-08
1.60315e-06
-3.21427e-08
1.60947e-06
5.70507e-09
1.5684e-06
5.3105e-08
1.44543e-06
1.32516e-07
1.30388e-06
1.46796e-07
1.24044e-06
6.79336e-08
1.24386e-06
-4.86987e-09
1.24952e-06
-5.29319e-09
1.27377e-06
-2.7539e-08
1.27195e-06
4.58665e-10
1.27969e-06
-9.03912e-09
1.27403e-06
4.57381e-09
1.29442e-06
-2.23506e-08
1.34726e-06
-5.48978e-08
1.4051e-06
-6.04481e-08
1.42273e-06
-2.09082e-08
1.39369e-06
2.6671e-08
1.35362e-06
3.5971e-08
1.31447e-06
3.39329e-08
1.26872e-06
3.97053e-08
1.15353e-06
1.07469e-07
1.03986e-06
1.11792e-07
1.01629e-06
2.60173e-08
1.05566e-06
-2.94481e-08
1.11183e-06
-4.51425e-08
1.1725e-06
-5.78335e-08
1.19913e-06
-2.55997e-08
1.21083e-06
-1.22133e-08
1.21804e-06
-8.58755e-09
1.22322e-06
-6.37153e-09
1.22488e-06
-3.326e-09
1.19701e-06
2.59284e-08
1.92697e-08
3.89043e-06
-3.71002e-07
3.96005e-06
-1.36626e-07
3.93162e-06
4.85949e-08
3.88557e-06
8.41149e-08
3.86201e-06
4.70914e-08
3.86626e-06
-3.02703e-09
3.86968e-06
-1.33164e-08
3.86761e-06
-2.08473e-08
3.85444e-06
-2.47321e-08
3.82123e-06
-1.06323e-08
3.7722e-06
2.35312e-09
3.72425e-06
2.11334e-09
3.69383e-06
2.17916e-09
3.69026e-06
-1.53237e-08
3.70326e-06
-2.62567e-08
3.72767e-06
-3.1812e-08
3.74757e-06
-2.19007e-08
3.76397e-06
-1.71084e-08
3.78952e-06
-2.71114e-08
3.81806e-06
-3.00394e-08
3.79372e-06
3.76779e-08
3.73911e-06
8.02939e-08
3.62881e-06
1.59711e-07
3.46829e-06
2.22998e-07
3.32888e-06
1.87166e-07
3.30481e-06
3.42884e-08
3.30574e-06
4.15565e-09
3.33314e-06
-2.78512e-08
3.41779e-06
-9.55239e-08
3.60954e-06
-2.31608e-07
3.87683e-06
-3.31982e-07
3.92502e-06
-5.60826e-08
3.88449e-06
5.26691e-08
3.75605e-06
1.67959e-07
3.52816e-06
3.02165e-07
3.35012e-06
2.30557e-07
3.2778e-06
8.93445e-08
3.32044e-06
-6.18711e-08
3.42052e-06
-1.34579e-07
3.6043e-06
-2.44567e-07
3.79963e-06
-2.64326e-07
3.90084e-06
-1.45232e-07
3.91951e-06
-3.29817e-08
3.9156e-06
-5.33935e-10
3.90654e-06
5.25047e-09
3.89925e-06
4.42549e-09
3.89208e-06
7.45326e-09
3.92826e-06
-4.51928e-08
3.99192e-06
-7.48629e-08
3.96302e-06
4.89193e-08
3.81725e-06
2.22109e-07
3.50693e-06
4.32888e-07
3.19802e-06
3.84636e-07
3.06323e-06
1.34754e-07
3.0055e-06
4.85993e-08
3.03184e-06
-4.22465e-08
3.06849e-06
-6.91801e-08
3.11091e-06
-9.79453e-08
3.15104e-06
-8.24257e-08
3.17215e-06
-9.17163e-08
3.1741e-06
-1.04556e-07
3.16023e-06
-9.75091e-08
3.13697e-06
-1.18854e-07
3.11007e-06
-1.32882e-07
3.07504e-06
-1.3985e-07
3.07586e-06
-1.74787e-07
3.19687e-06
-2.00443e-07
3.37919e-06
-1.86047e-07
3.64408e-06
-1.19104e-07
3.92687e-06
2.67919e-08
3.89516e-06
3.55616e-07
3.69636e-06
4.92832e-07
3.62098e-06
2.21807e-07
3.6505e-06
-3.31115e-08
3.62266e-06
2.3749e-08
3.58835e-06
-3.70927e-09
3.55074e-06
2.90706e-08
3.52038e-06
7.984e-09
3.5122e-06
-4.8327e-09
3.54265e-06
-8.02812e-08
3.647e-06
-1.93355e-07
3.80769e-06
-2.47869e-07
3.97928e-06
-2.03337e-07
4.0773e-06
-7.82956e-08
4.12213e-06
-1.72492e-08
4.12667e-06
9.40689e-09
4.09993e-06
4.36161e-08
3.92922e-06
2.56602e-07
3.51766e-06
5.20432e-07
3.07267e-06
4.83643e-07
2.95718e-06
1.42188e-07
3.04406e-06
-8.46735e-08
3.15393e-06
-1.61623e-07
3.30608e-06
-1.83212e-07
3.43533e-06
-1.58944e-07
3.52098e-06
-1.11521e-07
3.5619e-06
-5.68379e-08
3.56294e-06
-9.57831e-09
3.5649e-06
1.75582e-08
1.23399e-08
7.18906e-06
-5.4447e-07
7.01083e-06
-8.42376e-08
6.85457e-06
1.80731e-07
6.72894e-06
2.16621e-07
6.64438e-06
1.42651e-07
6.61322e-06
3.14994e-08
6.63785e-06
-4.26701e-08
6.71052e-06
-1.06008e-07
6.83078e-06
-1.64141e-07
6.93039e-06
-1.34741e-07
6.96378e-06
-5.81496e-08
6.93003e-06
8.21037e-09
6.85539e-06
5.24335e-08
6.73578e-06
8.4848e-08
6.55386e-06
1.41694e-07
6.35999e-06
1.53586e-07
6.19708e-06
1.37181e-07
6.09724e-06
8.20127e-08
6.08338e-06
-1.3024e-08
6.11068e-06
-5.54761e-08
6.06796e-06
8.12782e-08
5.97175e-06
1.7897e-07
5.76418e-06
3.66982e-07
5.46534e-06
5.17545e-07
5.25985e-06
3.87281e-07
5.2617e-06
3.04697e-08
5.30855e-06
-4.11921e-08
5.43537e-06
-1.48117e-07
5.67396e-06
-3.23375e-07
6.09348e-06
-6.40231e-07
6.63235e-06
-8.61171e-07
6.80067e-06
-2.26801e-07
6.73902e-06
1.15758e-07
6.54176e-06
3.65336e-07
6.17721e-06
6.69549e-07
5.81572e-06
5.90321e-07
5.57932e-06
3.21896e-07
5.61986e-06
-1.13212e-07
5.76435e-06
-2.88032e-07
6.06337e-06
-5.50446e-07
6.40559e-06
-6.09627e-07
6.57601e-06
-3.16318e-07
6.57078e-06
-2.86702e-08
6.49753e-06
7.08487e-08
6.42159e-06
7.9758e-08
6.40139e-06
2.24474e-08
6.40722e-06
-2.27671e-09
6.50216e-06
-1.44196e-07
6.66124e-06
-2.34238e-07
6.68743e-06
2.20262e-08
6.52269e-06
3.9035e-07
6.12855e-06
8.3054e-07
5.62233e-06
8.96215e-07
5.24717e-06
5.08996e-07
5.00324e-06
2.88312e-07
4.92053e-06
1.34865e-08
4.85145e-06
-5.14789e-08
4.7774e-06
-1.04171e-07
4.68825e-06
-1.03513e-07
4.57149e-06
-1.05754e-07
4.45954e-06
-1.41201e-07
4.35726e-06
-1.54301e-07
4.28466e-06
-2.04272e-07
4.26306e-06
-2.65736e-07
4.26474e-06
-2.95791e-07
4.2359e-06
-3.04837e-07
4.17549e-06
-3.08195e-07
4.17766e-06
-3.21936e-07
4.26702e-06
-2.04485e-07
4.51347e-06
-9.56651e-08
4.9552e-06
4.31993e-07
5.39195e-06
8.63068e-07
5.60619e-06
2.90122e-07
5.56915e-06
1.96246e-08
5.30646e-06
2.86305e-07
5.16866e-06
1.02059e-07
5.09148e-06
6.45449e-08
4.97762e-06
5.8197e-08
4.80958e-06
7.0957e-08
4.65256e-06
-4.99501e-08
4.53758e-06
-2.19033e-07
4.51811e-06
-3.39799e-07
4.63993e-06
-3.674e-07
4.85132e-06
-2.96027e-07
5.08495e-06
-2.71298e-07
5.38693e-06
-3.5527e-07
5.61407e-06
-1.80518e-07
5.68329e-06
2.14131e-07
5.59735e-06
6.72344e-07
5.17985e-06
1.03149e-06
4.71477e-06
8.19759e-07
4.55272e-06
1.45739e-07
4.53914e-06
-1.41045e-07
4.47622e-06
-1.73147e-07
4.41409e-06
-1.86478e-07
4.40647e-06
-1.86122e-07
4.46379e-06
-1.64413e-07
4.54082e-06
-1.1445e-07
4.60667e-06
-6.96622e-08
-2.82202e-08
9.33434e-06
-2.3856e-07
8.94121e-06
1.98159e-07
8.86768e-06
2.60021e-07
9.00156e-06
1.14856e-07
9.18959e-06
-1.83284e-08
9.29494e-06
-6.02726e-08
9.37193e-06
-1.19321e-07
9.46921e-06
-2.14612e-07
9.53164e-06
-2.48704e-07
9.51788e-06
-1.51246e-07
9.47077e-06
-4.61509e-08
9.38326e-06
5.89091e-08
9.27245e-06
1.29241e-07
9.18267e-06
1.48153e-07
9.11485e-06
1.90073e-07
9.05823e-06
1.9792e-07
8.97931e-06
2.10701e-07
8.89306e-06
1.67438e-07
8.88405e-06
-3.18842e-09
8.95587e-06
-1.23326e-07
8.89643e-06
1.38561e-07
8.70427e-06
3.73002e-07
8.33939e-06
7.29707e-07
7.85384e-06
9.96083e-07
7.50637e-06
7.26044e-07
7.48946e-06
4.76322e-08
7.57507e-06
-1.22891e-07
7.7623e-06
-3.23593e-07
8.09228e-06
-6.36468e-07
8.66008e-06
-1.19302e-06
9.39626e-06
-1.58467e-06
9.6784e-06
-5.10884e-07
9.66962e-06
1.27977e-07
9.52486e-06
5.10676e-07
9.14467e-06
1.05558e-06
8.64165e-06
1.09265e-06
8.139e-06
8.12555e-07
7.99707e-06
-9.19107e-09
7.94564e-06
-3.21519e-07
8.17265e-06
-8.18452e-07
8.70265e-06
-1.07216e-06
9.12399e-06
-6.51324e-07
9.2474e-06
-9.31385e-08
9.19082e-06
1.62745e-07
9.06149e-06
2.30363e-07
8.97947e-06
1.02727e-07
8.88722e-06
6.2202e-08
8.83695e-06
-2.03378e-07
8.99735e-06
-4.33057e-07
9.15083e-06
-1.12545e-07
9.06283e-06
5.32874e-07
8.67654e-06
1.26772e-06
8.05756e-06
1.5627e-06
7.4753e-06
1.09511e-06
6.89665e-06
8.46551e-07
6.57652e-06
2.43783e-07
6.30959e-06
6.39177e-08
6.04168e-06
-2.52423e-08
5.81314e-06
-8.19577e-08
5.61653e-06
-1.16614e-07
5.47213e-06
-1.99462e-07
5.37663e-06
-2.51969e-07
5.32286e-06
-3.36547e-07
5.32541e-06
-4.47311e-07
5.35933e-06
-5.04233e-07
5.35855e-06
-4.81586e-07
5.28952e-06
-4.26084e-07
5.1569e-06
-4.06499e-07
5.03353e-06
-2.61422e-07
5.03968e-06
-9.40728e-08
5.28752e-06
4.4886e-07
6.04064e-06
1.19762e-06
6.71345e-06
6.64797e-07
6.72119e-06
1.08917e-07
6.34621e-06
6.53083e-07
6.1033e-06
2.44096e-07
5.88217e-06
1.44443e-07
5.68203e-06
9.17973e-08
5.46489e-06
1.00426e-07
5.20478e-06
1.91547e-09
4.9558e-06
-1.77757e-07
4.78709e-06
-3.483e-07
4.75581e-06
-4.52386e-07
4.81394e-06
-4.23102e-07
4.81172e-06
-3.58318e-07
4.86492e-06
-5.47562e-07
5.13321e-06
-4.29923e-07
5.42848e-06
-1.06627e-08
5.73737e-06
5.22841e-07
5.97415e-06
1.12615e-06
5.9466e-06
1.4001e-06
5.81564e-06
4.82955e-07
5.71601e-06
-3.24489e-08
5.63214e-06
-1.65083e-07
5.52947e-06
-2.37974e-07
5.44804e-06
-2.6559e-07
5.37621e-06
-2.2718e-07
5.2685e-06
-1.17125e-07
5.20962e-06
-9.31908e-08
-4.54573e-08
1.21169e-05
1.76525e-06
1.10527e-05
1.20759e-06
1.09258e-05
4.37472e-07
1.11892e-05
-8.06312e-08
1.16315e-05
-4.10912e-07
1.20397e-05
-4.41555e-07
1.23515e-05
-4.20731e-07
1.25863e-05
-4.55215e-07
1.26687e-05
-3.52122e-07
1.26157e-05
-1.30728e-07
1.24373e-05
9.20715e-08
1.20521e-05
4.0041e-07
1.152e-05
6.19667e-07
1.11853e-05
4.50912e-07
1.11099e-05
2.41078e-07
1.11164e-05
1.76078e-07
1.11619e-05
1.58258e-07
1.12717e-05
5.71099e-08
1.15103e-05
-2.40801e-07
1.18112e-05
-4.21095e-07
1.18894e-05
5.63612e-08
1.17476e-05
5.16019e-07
1.14397e-05
1.0326e-06
1.09137e-05
1.51237e-06
1.03471e-05
1.28128e-06
1.01201e-05
2.789e-07
1.01086e-05
-1.04838e-07
1.02199e-05
-4.17683e-07
1.05673e-05
-9.63057e-07
1.12907e-05
-1.8995e-06
1.22204e-05
-2.48986e-06
1.2576e-05
-8.53116e-07
1.25497e-05
1.61453e-07
1.22853e-05
7.7934e-07
1.17053e-05
1.64378e-06
1.10078e-05
1.78605e-06
1.02347e-05
1.5456e-06
9.80716e-06
2.91272e-07
9.24223e-06
-7.98623e-08
8.74451e-06
-7.96778e-07
8.93642e-06
-1.31546e-06
9.71459e-06
-1.2183e-06
1.05982e-05
-4.69469e-07
1.12234e-05
-7.63767e-08
1.14847e-05
1.75585e-07
1.14621e-05
1.69664e-07
1.1208e-05
2.76072e-07
1.07945e-05
-3.48678e-08
1.04442e-05
-4.97053e-07
1.04041e-05
-1.60711e-07
1.05409e-05
4.53714e-07
1.06313e-05
1.43637e-06
1.02887e-05
2.17586e-06
9.57873e-06
1.84326e-06
8.66319e-06
1.7219e-06
8.05559e-06
6.61609e-07
7.51043e-06
3.19455e-07
7.02172e-06
1.3341e-07
6.64073e-06
-1.4e-08
6.35328e-06
-1.05032e-07
6.16823e-06
-2.62148e-07
6.03903e-06
-3.53576e-07
5.93906e-06
-4.54573e-07
5.88507e-06
-6.02797e-07
5.85871e-06
-6.79311e-07
5.81178e-06
-6.25433e-07
5.75225e-06
-5.40479e-07
5.68959e-06
-5.08866e-07
5.54315e-06
-3.00158e-07
5.41608e-06
-7.56826e-09
5.50198e-06
4.7483e-07
6.09495e-06
1.3471e-06
7.17383e-06
1.43059e-06
7.72286e-06
-5.37572e-08
7.22933e-06
1.12706e-06
6.85314e-06
4.32792e-07
6.39206e-06
3.27296e-07
5.98739e-06
2.2076e-07
5.64482e-06
1.85807e-07
5.33171e-06
6.5859e-08
5.05578e-06
-1.45687e-07
4.82508e-06
-3.43936e-07
4.69245e-06
-5.08373e-07
4.64458e-06
-5.0621e-07
4.5817e-06
-4.30777e-07
4.6323e-06
-7.45998e-07
4.86018e-06
-6.81877e-07
5.05679e-06
-1.78315e-07
5.3039e-06
3.95911e-07
5.78234e-06
9.8878e-07
6.2745e-06
1.71488e-06
6.47305e-06
8.17332e-07
6.40367e-06
5.82474e-08
6.30564e-06
-1.38169e-07
6.15524e-06
-2.68343e-07
5.97921e-06
-2.98315e-07
5.80208e-06
-2.38315e-07
5.64488e-06
-1.30406e-07
5.44591e-06
-5.27853e-08
-3.33977e-08
1.46443e-05
1.9499e-06
1.46664e-05
1.21179e-06
1.497e-05
2.40039e-07
1.53352e-05
-3.44761e-07
1.55492e-05
-5.51284e-07
1.55268e-05
-3.76258e-07
1.53485e-05
-2.16917e-07
1.51552e-05
-2.58331e-07
1.50747e-05
-2.86744e-07
1.49904e-05
-7.70614e-08
1.47923e-05
2.49006e-07
1.44293e-05
7.1588e-07
1.39671e-05
1.03428e-06
1.36933e-05
6.87623e-07
1.36189e-05
2.86397e-07
1.3646e-05
1.31337e-07
1.37372e-05
5.86137e-08
1.38739e-05
-8.03399e-08
1.40529e-05
-4.19321e-07
1.4311e-05
-6.79941e-07
1.44894e-05
-1.34492e-07
1.43314e-05
6.75113e-07
1.40203e-05
1.33719e-06
1.33931e-05
2.12809e-06
1.26333e-05
2.02947e-06
1.22745e-05
6.44263e-07
1.22618e-05
-8.68249e-08
1.23777e-05
-5.25942e-07
1.26781e-05
-1.285e-06
1.34405e-05
-2.7262e-06
1.46551e-05
-3.47203e-06
1.54065e-05
-1.40972e-06
1.54364e-05
2.33235e-07
1.5087e-05
1.18437e-06
1.42613e-05
2.49959e-06
1.33338e-05
2.71369e-06
1.22325e-05
2.57004e-06
1.14569e-05
7.95384e-07
1.04655e-05
3.80701e-07
9.3502e-06
-4.3491e-07
8.67375e-06
-1.29654e-06
8.88188e-06
-1.45095e-06
9.65344e-06
-1.0177e-06
1.09441e-05
-6.6696e-07
1.25656e-05
-3.2211e-07
1.34151e-05
-1.69455e-07
1.33727e-05
3.45377e-07
1.29569e-05
1.90347e-07
1.21142e-05
-2.30721e-07
1.13472e-05
3.97401e-09
1.11189e-05
5.93684e-07
1.1318e-05
1.45423e-06
1.15311e-05
2.62577e-06
1.12175e-05
2.428e-06
1.0107e-05
2.79541e-06
9.23322e-06
1.22024e-06
8.39763e-06
6.83332e-07
7.6706e-06
3.75862e-07
7.13677e-06
1.04844e-07
6.74427e-06
-6.15758e-08
6.45468e-06
-2.81296e-07
6.20841e-06
-3.91467e-07
5.97547e-06
-4.96515e-07
5.80836e-06
-6.84035e-07
5.73322e-06
-8.17978e-07
5.72875e-06
-7.79145e-07
5.79737e-06
-7.26791e-07
5.92515e-06
-7.25909e-07
5.911e-06
-3.98491e-07
5.7665e-06
8.75312e-08
5.75422e-06
5.20247e-07
6.09969e-06
1.45478e-06
7.30062e-06
2.07344e-06
8.47207e-06
4.79818e-08
8.11511e-06
1.49289e-06
7.63051e-06
7.02699e-07
6.99963e-06
5.77884e-07
6.42175e-06
4.19516e-07
5.95321e-06
3.16797e-07
5.54438e-06
1.64519e-07
5.17498e-06
-7.70207e-08
4.82526e-06
-2.83499e-07
4.5718e-06
-5.07198e-07
4.49263e-06
-5.96282e-07
4.59428e-06
-6.42983e-07
4.92923e-06
-1.14569e-06
5.29433e-06
-1.09462e-06
5.42063e-06
-3.20604e-07
5.43599e-06
4.11621e-07
5.60017e-06
9.747e-07
6.02811e-06
1.94162e-06
6.5141e-06
1.22074e-06
6.6736e-06
1.1098e-08
6.62983e-06
-1.10138e-07
6.51379e-06
-3.01957e-07
6.35783e-06
-3.47638e-07
6.19459e-06
-2.7953e-07
5.99036e-06
-1.25612e-07
5.69716e-06
4.04077e-08
5.48268e-09
1.73892e-05
3.04325e-06
1.68254e-05
1.82533e-06
1.67304e-05
4.59342e-07
1.68943e-05
-3.92193e-07
1.71406e-05
-7.10887e-07
1.72958e-05
-4.72308e-07
1.72616e-05
-1.45359e-07
1.72156e-05
-1.9643e-07
1.72815e-05
-3.56804e-07
1.7336e-05
-1.55891e-07
1.7264e-05
2.82857e-07
1.70658e-05
8.65995e-07
1.67232e-05
1.32493e-06
1.63059e-05
1.0649e-06
1.594e-05
6.20736e-07
1.5779e-05
2.73014e-07
1.57895e-05
3.87961e-08
1.58779e-05
-1.70956e-07
1.60677e-05
-6.10762e-07
1.64532e-05
-1.07048e-06
1.68158e-05
-5.18037e-07
1.6712e-05
7.75706e-07
1.63996e-05
1.63887e-06
1.5694e-05
2.81919e-06
1.48847e-05
2.82418e-06
1.44471e-05
1.07956e-06
1.44145e-05
-6.63166e-08
1.43559e-05
-5.25086e-07
1.39323e-05
-1.12622e-06
1.30068e-05
-2.68114e-06
1.33742e-05
-3.77831e-06
1.52535e-05
-2.29355e-06
1.64913e-05
-6.78766e-08
1.68076e-05
1.45225e-06
1.62039e-05
3.47095e-06
1.53637e-05
3.66963e-06
1.40246e-05
3.82001e-06
1.29822e-05
1.47293e-06
1.17316e-05
9.37286e-07
1.04352e-05
-3.58846e-08
9.32109e-06
-1.06025e-06
8.71572e-06
-1.4949e-06
8.87069e-06
-1.22168e-06
9.44812e-06
-1.04431e-06
1.09039e-05
-9.29137e-07
1.31752e-05
-5.79327e-07
1.43753e-05
-1.55733e-07
1.43447e-05
2.28236e-07
1.37625e-05
-1.47287e-08
1.26286e-05
2.56133e-07
1.1751e-05
1.04558e-06
1.16337e-05
1.49881e-06
1.19674e-05
2.97517e-06
1.218e-05
3.0609e-06
1.11885e-05
3.74282e-06
1.02034e-05
1.84644e-06
9.07925e-06
1.17769e-06
8.08939e-06
7.24346e-07
7.34292e-06
3.09964e-07
6.75664e-06
7.94402e-08
6.3058e-06
-2.21975e-07
5.93888e-06
-3.71929e-07
5.61995e-06
-4.89523e-07
5.47273e-06
-7.93449e-07
5.57705e-06
-1.07532e-06
5.85438e-06
-1.15043e-06
6.19127e-06
-1.08835e-06
6.53192e-06
-1.10673e-06
6.63346e-06
-5.85209e-07
6.47714e-06
1.71772e-07
6.36827e-06
6.29108e-07
6.30707e-06
1.68083e-06
7.05622e-06
2.56442e-06
8.59795e-06
8.71295e-07
8.6296e-06
1.61407e-06
8.11699e-06
9.91575e-07
7.33595e-06
8.80391e-07
6.61415e-06
6.60241e-07
6.05079e-06
4.80034e-07
5.57898e-06
2.79614e-07
5.15826e-06
4.34919e-09
4.77339e-06
-2.25186e-07
4.55255e-06
-5.36415e-07
4.64437e-06
-8.21058e-07
5.04762e-06
-1.064e-06
5.66127e-06
-1.73055e-06
6.16632e-06
-1.66858e-06
6.27759e-06
-5.23406e-07
6.1079e-06
5.35359e-07
5.93139e-06
1.18174e-06
5.86045e-06
2.32947e-06
6.09616e-06
1.68358e-06
6.33677e-06
3.836e-08
6.42786e-06
-1.77e-07
6.45716e-06
-3.88833e-07
6.42186e-06
-4.37949e-07
6.30976e-06
-3.21713e-07
6.13503e-06
-1.21459e-07
5.86788e-06
1.18543e-07
3.34146e-08
1.91664e-05
1.05747e-06
1.95076e-05
1.52756e-06
1.9456e-05
6.10289e-07
1.96614e-05
-4.87315e-07
1.99751e-05
-9.35459e-07
2.03805e-05
-7.98888e-07
2.06676e-05
-3.77589e-07
2.08024e-05
-2.99568e-07
2.09229e-05
-4.67309e-07
2.09235e-05
-1.70334e-07
2.06383e-05
5.39086e-07
2.00833e-05
1.37846e-06
1.94329e-05
1.92127e-06
1.89121e-05
1.54792e-06
1.86207e-05
8.79151e-07
1.84517e-05
4.20116e-07
1.83855e-05
9.13359e-08
1.84839e-05
-2.78305e-07
1.87738e-05
-9.11306e-07
1.92653e-05
-1.56962e-06
1.97126e-05
-9.67433e-07
1.9525e-05
9.52351e-07
1.90664e-05
2.08232e-06
1.82046e-05
3.65859e-06
1.7228e-05
3.76762e-06
1.64758e-05
1.79163e-06
1.62173e-05
1.04746e-07
1.56903e-05
-2.64599e-07
1.43948e-05
-5.73344e-07
1.18657e-05
-1.66572e-06
9.60273e-06
-3.06144e-06
9.6894e-06
-2.20767e-06
1.13864e-05
-9.52291e-07
1.4172e-05
6.97396e-07
1.61138e-05
3.17307e-06
1.66396e-05
4.06217e-06
1.55004e-05
4.89894e-06
1.43853e-05
2.24419e-06
1.29465e-05
1.53247e-06
1.15133e-05
3.54939e-07
1.0311e-05
-8.50204e-07
9.27828e-06
-1.3256e-06
8.60148e-06
-1.19622e-06
8.51264e-06
-1.00702e-06
8.96474e-06
-1.17389e-06
1.04065e-05
-9.67859e-07
1.27574e-05
-3.08735e-07
1.39273e-05
-4.44798e-07
1.39464e-05
-4.27112e-08
1.32376e-05
3.83556e-07
1.22244e-05
1.32224e-06
1.17971e-05
1.77407e-06
1.19684e-05
3.24526e-06
1.25411e-05
3.80737e-06
1.18603e-05
4.47762e-06
1.08757e-05
2.46209e-06
9.55917e-06
1.73695e-06
8.32511e-06
1.15752e-06
7.35709e-06
6.07972e-07
6.59963e-06
2.88483e-07
6.02692e-06
-1.03633e-07
5.60455e-06
-3.24474e-07
5.35508e-06
-5.26061e-07
5.43886e-06
-1.04148e-06
5.85006e-06
-1.51637e-06
6.40379e-06
-1.69978e-06
7.01204e-06
-1.61993e-06
7.57529e-06
-1.62059e-06
7.81633e-06
-8.73196e-07
7.57673e-06
2.58764e-07
7.25e-06
8.87904e-07
6.91505e-06
2.10062e-06
7.04958e-06
3.17167e-06
8.48117e-06
1.8887e-06
8.85565e-06
1.58143e-06
8.39239e-06
1.30107e-06
7.5556e-06
1.18178e-06
6.74635e-06
9.15127e-07
6.10511e-06
6.56695e-07
5.55629e-06
4.22161e-07
5.06013e-06
1.10655e-07
4.6951e-06
-1.92431e-07
4.74031e-06
-7.0029e-07
5.16492e-06
-1.25461e-06
5.98261e-06
-1.78442e-06
7.09355e-06
-2.59415e-06
7.90904e-06
-2.52958e-06
7.94683e-06
-7.13578e-07
7.32398e-06
8.97786e-07
6.75e-06
1.68192e-06
6.26437e-06
2.86234e-06
6.03143e-06
2.23565e-06
6.10865e-06
2.55245e-07
6.25607e-06
-2.76158e-07
6.35732e-06
-4.76438e-07
6.43671e-06
-5.45861e-07
6.45349e-06
-4.17341e-07
6.37298e-06
-1.70275e-07
6.1475e-06
1.76793e-07
4.90756e-08
2.246e-05
8.24839e-07
2.23173e-05
1.63193e-06
2.18372e-05
1.10152e-06
2.14895e-05
-1.30522e-07
2.13903e-05
-7.94649e-07
2.14804e-05
-7.50284e-07
2.16991e-05
-4.20616e-07
2.20268e-05
-4.90799e-07
2.25379e-05
-8.57402e-07
2.30363e-05
-5.6449e-07
2.30373e-05
5.69543e-07
2.26105e-05
1.79422e-06
2.21652e-05
2.32111e-06
2.19007e-05
1.77318e-06
2.1814e-05
9.16751e-07
2.1701e-05
4.87814e-07
2.14811e-05
2.52723e-07
2.11754e-05
-7.14591e-08
2.08735e-05
-7.57919e-07
2.09688e-05
-1.73441e-06
2.16989e-05
-1.4606e-06
2.19819e-05
8.25296e-07
2.17071e-05
2.45266e-06
2.07147e-05
4.67475e-06
1.95097e-05
4.91012e-06
1.83173e-05
2.84834e-06
1.74582e-05
6.78014e-07
1.62066e-05
3.72307e-07
1.41818e-05
2.19952e-07
1.14136e-05
-6.69732e-07
8.82735e-06
-2.03787e-06
7.99429e-06
-2.05755e-06
8.57913e-06
-1.33249e-06
9.74664e-06
1.08226e-07
1.26706e-05
2.12709e-06
1.61011e-05
4.19527e-06
1.62151e-05
4.99724e-06
1.51355e-05
3.02269e-06
1.35606e-05
2.13874e-06
1.18964e-05
7.73396e-07
1.04552e-05
-5.56373e-07
9.27584e-06
-1.05772e-06
8.40782e-06
-1.02539e-06
7.98194e-06
-9.75927e-07
8.09234e-06
-1.24208e-06
8.68142e-06
-1.24001e-06
1.01185e-05
-6.44694e-07
1.17275e-05
-5.8079e-07
1.25215e-05
-5.14403e-07
1.24819e-05
3.64035e-07
1.19913e-05
1.36831e-06
1.16128e-05
1.95574e-06
1.16715e-05
3.5103e-06
1.24827e-05
4.54624e-06
1.21166e-05
5.04739e-06
1.11398e-05
3.08236e-06
9.64752e-06
2.37548e-06
8.21512e-06
1.65015e-06
7.0895e-06
9.46808e-07
6.22436e-06
5.51001e-07
5.63598e-06
8.67158e-09
5.33437e-06
-3.47508e-07
5.34902e-06
-6.85226e-07
5.6976e-06
-1.40091e-06
6.27891e-06
-2.0725e-06
7.01369e-06
-2.34024e-06
7.87444e-06
-2.25881e-06
8.77263e-06
-2.17667e-06
9.2699e-06
-1.28542e-06
8.95736e-06
5.0133e-07
8.3339e-06
1.24722e-06
7.80999e-06
2.66491e-06
7.54522e-06
3.77092e-06
8.61117e-06
3.16206e-06
9.01706e-06
1.85067e-06
8.57192e-06
1.67932e-06
7.67989e-06
1.47658e-06
6.75339e-06
1.20485e-06
5.96377e-06
9.06353e-07
5.28224e-06
6.31418e-07
4.81954e-06
1.70242e-07
4.77793e-06
-2.92546e-07
5.15804e-06
-1.08645e-06
5.94351e-06
-1.90344e-06
7.18298e-06
-2.70688e-06
8.39062e-06
-3.59058e-06
9.22911e-06
-3.38342e-06
9.4357e-06
-9.93152e-07
8.70192e-06
1.37821e-06
7.71332e-06
2.34323e-06
6.94726e-06
3.59946e-06
6.39472e-06
2.83389e-06
6.19709e-06
5.68768e-07
6.34151e-06
-3.03373e-07
6.46646e-06
-5.7621e-07
6.57008e-06
-6.42569e-07
6.64009e-06
-5.2372e-07
6.62267e-06
-2.43004e-07
6.45167e-06
2.1588e-07
8.75779e-08
2.28907e-05
8.79368e-07
2.1299e-05
2.72962e-06
1.9112e-05
2.50084e-06
1.65487e-05
1.44921e-06
1.43052e-05
4.86145e-07
1.3533e-05
-1.65293e-07
1.40801e-05
-2.73387e-07
1.45768e-05
-1.52163e-07
1.50668e-05
-5.13651e-07
1.7042e-05
-8.42517e-07
1.95833e-05
-1.87334e-07
2.0699e-05
1.65397e-06
2.11023e-05
2.40911e-06
2.07288e-05
2.07743e-06
2.01814e-05
1.21003e-06
1.93916e-05
9.09105e-07
1.82547e-05
9.24977e-07
1.67448e-05
8.50643e-07
1.46473e-05
5.10505e-07
1.26992e-05
-8.89945e-07
1.30458e-05
-1.48977e-06
1.51653e-05
-3.32076e-07
1.72419e-05
1.50061e-06
1.88702e-05
4.05815e-06
1.95357e-05
4.98347e-06
1.82479e-05
3.88185e-06
1.66126e-05
1.71713e-06
1.46157e-05
1.32487e-06
1.22244e-05
1.09311e-06
9.71221e-06
7.81601e-08
7.89041e-06
-1.2774e-06
7.16962e-06
-2.17104e-06
7.28439e-06
-1.52258e-06
7.93852e-06
-3.39247e-07
9.66531e-06
1.44946e-06
1.33894e-05
4.37967e-06
1.57065e-05
4.17631e-06
1.48476e-05
3.72514e-06
1.31424e-05
2.69312e-06
1.12037e-05
1.21339e-06
9.68554e-06
-2.82574e-07
8.64262e-06
-8.69365e-07
8.04102e-06
-1.00535e-06
7.84459e-06
-1.0605e-06
7.99885e-06
-1.39717e-06
8.35155e-06
-1.48209e-06
9.03531e-06
-8.38285e-07
9.80521e-06
-7.37346e-07
1.04635e-05
-7.72699e-07
1.08445e-05
2.12488e-07
1.09185e-05
1.26296e-06
1.08246e-05
1.99085e-06
1.10172e-05
3.72771e-06
1.21793e-05
5.12711e-06
1.21132e-05
5.39478e-06
1.12063e-05
3.65436e-06
9.65154e-06
3.00833e-06
8.0818e-06
2.17969e-06
6.81964e-06
1.33452e-06
5.90805e-06
8.13402e-07
5.42102e-06
7.46911e-08
5.33639e-06
-4.25315e-07
5.50705e-06
-8.61985e-07
5.91794e-06
-1.78408e-06
6.60287e-06
-2.66029e-06
7.42834e-06
-2.98711e-06
8.24925e-06
-2.7648e-06
9.31735e-06
-2.59419e-06
1.01348e-05
-1.62234e-06
1.00313e-05
6.50181e-07
9.40428e-06
1.61876e-06
8.71772e-06
3.30341e-06
8.28489e-06
4.51261e-06
9.07232e-06
4.54628e-06
9.2587e-06
2.35906e-06
8.66165e-06
2.17799e-06
7.64712e-06
1.82687e-06
6.60983e-06
1.52701e-06
5.72624e-06
1.19359e-06
5.03447e-06
8.19875e-07
4.81951e-06
1.4577e-07
5.06046e-06
-5.3786e-07
5.73948e-06
-1.60442e-06
6.8825e-06
-2.67177e-06
8.12904e-06
-3.65397e-06
9.17324e-06
-4.5247e-06
1.0027e-05
-4.22549e-06
1.03992e-05
-1.39168e-06
9.85758e-06
1.78822e-06
8.71713e-06
3.09601e-06
7.63306e-06
4.45992e-06
6.91325e-06
3.53282e-06
6.57361e-06
9.19608e-07
6.65155e-06
-3.29826e-07
6.80753e-06
-6.83739e-07
6.90285e-06
-7.31791e-07
6.95799e-06
-5.97057e-07
6.9558e-06
-3.04043e-07
6.85739e-06
2.17206e-07
1.08494e-07
4.48625e-06
-1.45592e-06
5.805e-06
8.99627e-07
5.24323e-06
1.92118e-06
3.98726e-06
1.43385e-06
3.22356e-06
7.01538e-07
3.09986e-06
-3.7893e-08
3.25565e-06
-1.20445e-07
3.33768e-06
-1.45186e-07
3.57304e-06
-6.94984e-07
4.35777e-06
-1.4151e-06
6.44344e-06
-1.47276e-06
9.79217e-06
-7.75945e-07
1.30057e-05
1.17899e-06
1.30326e-05
1.65625e-06
1.20698e-05
1.38251e-06
1.10935e-05
1.02463e-06
1.02206e-05
1.07668e-06
9.37885e-06
1.14413e-06
8.26797e-06
1.12134e-06
6.76151e-06
-2.98146e-07
6.42711e-06
-1.37627e-06
7.69008e-06
-1.44176e-06
9.88967e-06
8.09746e-08
1.3541e-05
1.72525e-06
1.68093e-05
4.03073e-06
1.59913e-05
4.38698e-06
1.40104e-05
2.95788e-06
1.17999e-05
2.29898e-06
9.60279e-06
1.70509e-06
7.98373e-06
5.41271e-07
6.79255e-06
-1.13614e-06
6.6654e-06
-2.30314e-06
7.20307e-06
-2.07217e-06
7.3621e-06
-4.71867e-07
7.84203e-06
1.27439e-06
1.06929e-05
4.2149e-06
1.39862e-05
4.36066e-06
1.36207e-05
3.92365e-06
1.20417e-05
3.13143e-06
1.01277e-05
1.56926e-06
8.68811e-06
-9.09248e-09
7.8575e-06
-7.41313e-07
7.54983e-06
-1.06889e-06
7.49895e-06
-1.11749e-06
7.63992e-06
-1.52914e-06
8.00001e-06
-1.76002e-06
8.43696e-06
-1.11055e-06
8.71991e-06
-9.14291e-07
8.95983e-06
-9.54617e-07
9.20641e-06
5.77157e-08
9.39515e-06
1.16578e-06
9.60999e-06
1.90347e-06
1.01806e-05
3.7443e-06
1.17255e-05
5.55023e-06
1.18434e-05
5.58595e-06
1.0971e-05
4.19229e-06
9.36283e-06
3.62452e-06
7.70164e-06
2.70058e-06
6.4379e-06
1.7004e-06
5.63217e-06
1.02599e-06
5.34306e-06
9.26075e-08
5.34901e-06
-4.88189e-07
5.48534e-06
-9.9176e-07
5.87474e-06
-2.14666e-06
6.53415e-06
-3.26912e-06
7.23565e-06
-3.48709e-06
7.86429e-06
-3.08039e-06
9.08487e-06
-3.07216e-06
1.05068e-05
-2.07058e-06
1.08243e-05
4.78675e-07
1.03148e-05
2.00627e-06
9.57659e-06
4.00452e-06
9.04614e-06
5.39049e-06
9.59038e-06
6.18093e-06
9.44272e-06
2.99074e-06
8.64262e-06
2.73347e-06
7.47345e-06
2.23163e-06
6.32035e-06
1.9141e-06
5.37419e-06
1.50254e-06
4.85918e-06
9.09668e-07
4.90207e-06
4.63062e-08
5.39156e-06
-9.57122e-07
6.35593e-06
-2.12027e-06
7.47669e-06
-3.39597e-06
8.52132e-06
-4.52145e-06
9.512e-06
-5.37289e-06
1.04158e-05
-5.00147e-06
1.09385e-05
-1.88886e-06
1.07052e-05
1.96218e-06
9.61235e-06
3.88411e-06
8.32971e-06
5.37844e-06
7.46223e-06
4.30762e-06
7.02811e-06
1.34738e-06
6.99941e-06
-2.83511e-07
7.09364e-06
-7.49484e-07
7.14721e-06
-7.78586e-07
7.19138e-06
-6.43919e-07
7.21904e-06
-3.56064e-07
7.14911e-06
2.37918e-07
1.52906e-07
1.01008e-06
-1.10912e-06
1.57547e-06
2.61234e-07
1.82813e-06
1.34151e-06
2.00563e-06
1.19092e-06
1.96992e-06
6.59672e-07
1.86452e-06
7.42281e-08
1.89146e-06
-1.25993e-07
2.0345e-06
-2.77894e-07
2.21705e-06
-8.78488e-07
2.46156e-06
-1.61348e-06
3.31382e-06
-1.79689e-06
5.08808e-06
-1.34196e-06
6.47582e-06
5.05336e-08
6.52556e-06
1.24111e-06
5.96246e-06
1.15856e-06
5.56498e-06
8.60655e-07
5.39581e-06
9.45648e-07
5.08694e-06
1.1663e-06
4.57531e-06
1.12515e-06
4.15235e-06
-3.09798e-07
4.4071e-06
-1.67701e-06
5.1087e-06
-2.11438e-06
6.23188e-06
-8.95218e-07
7.989e-06
6.52811e-07
1.11978e-05
2.79997e-06
1.19667e-05
3.9898e-06
1.06183e-05
3.79481e-06
8.90677e-06
2.77538e-06
7.44125e-06
2.12788e-06
6.39482e-06
3.33617e-07
6.01901e-06
-1.22072e-06
6.63562e-06
-2.8756e-06
7.69588e-06
-2.77867e-06
8.04185e-06
-8.14279e-07
7.85235e-06
1.69884e-06
9.51064e-06
4.37306e-06
1.21597e-05
4.91036e-06
1.17993e-05
4.12809e-06
1.03207e-05
3.43721e-06
8.68262e-06
1.73732e-06
7.6407e-06
9.94256e-08
7.06938e-06
-5.84151e-07
6.89669e-06
-9.89903e-07
6.8193e-06
-1.03483e-06
6.90913e-06
-1.62251e-06
7.35914e-06
-2.14342e-06
7.78396e-06
-1.55678e-06
7.77012e-06
-1.03075e-06
7.79621e-06
-1.03598e-06
8.02316e-06
-1.74075e-07
8.09418e-06
1.1601e-06
8.32815e-06
1.82347e-06
9.00923e-06
3.69614e-06
1.08583e-05
5.84054e-06
1.13007e-05
5.50731e-06
1.04566e-05
4.70557e-06
8.85142e-06
4.19347e-06
7.2387e-06
3.16198e-06
6.10361e-06
2.00399e-06
5.45326e-06
1.21467e-06
5.20504e-06
1.40651e-07
5.20425e-06
-5.38865e-07
5.27278e-06
-1.06345e-06
5.51983e-06
-2.47524e-06
6.25825e-06
-3.94402e-06
7.09517e-06
-4.17854e-06
7.92446e-06
-3.56639e-06
9.42001e-06
-3.75921e-06
1.10759e-05
-2.63786e-06
1.14963e-05
2.52892e-07
1.10434e-05
2.43138e-06
1.02979e-05
4.7894e-06
9.73835e-06
6.41634e-06
1.0092e-05
8.05918e-06
9.55652e-06
3.71213e-06
8.51276e-06
3.33182e-06
7.15473e-06
2.71112e-06
5.91619e-06
2.32345e-06
5.04169e-06
1.74962e-06
4.70599e-06
1.02215e-06
4.90433e-06
-1.6166e-07
5.62875e-06
-1.35817e-06
6.68138e-06
-2.59565e-06
7.52518e-06
-4.01764e-06
8.34358e-06
-5.18265e-06
9.34347e-06
-6.19315e-06
1.03601e-05
-5.75883e-06
1.10621e-05
-2.44276e-06
1.11219e-05
1.88802e-06
1.02581e-05
4.60178e-06
8.98276e-06
6.23382e-06
8.03212e-06
5.08325e-06
7.44524e-06
1.90171e-06
7.18985e-06
-3.30545e-08
7.19433e-06
-7.45611e-07
7.22322e-06
-7.88019e-07
7.25452e-06
-6.60135e-07
7.26586e-06
-3.65685e-07
7.25656e-06
2.35339e-07
1.50326e-07
4.96614e-07
-6.01239e-07
2.83445e-07
4.41309e-07
7.86486e-07
7.43059e-07
1.20399e-06
7.553e-07
1.43959e-06
4.25115e-07
1.5195e-06