/*--------------------------------*- C++ -*----------------------------------*\
| =========                 |                                                 |
| \\      /  F ield         | OpenFOAM: The Open Source CFD Toolbox           |
|  \\    /   O peration     | Version:  2.3.0                                 |
|   \\  /    A nd           | Web:      www.OpenFOAM.org                      |
|    \\/     M anipulation  |                                                 |
\*---------------------------------------------------------------------------*/
FoamFile
{
    version     2.0;
    format      ascii;
    class       volScalarField;
    location    "0.05";
    object      rho;
}
// * * * * * * * * * * * * * * * * * * * * * * * * * * * * * * * * * * * * * //

dimensions      [1 -3 0 0 0 0 0];

internalField   nonuniform List<scalar> 
5000
(
1.05691
1.05408
1.05148
1.05044
1.04998
1.04954
1.049
1.04847
1.04793
1.04733
1.04684
1.04647
1.04615
1.04642
1.04654
1.04669
1.04678
1.04689
1.04688
1.04678
1.04599
1.04582
1.04575
1.04608
1.04651
1.04756
1.04786
1.04841
1.04873
1.04883
1.04943
1.04706
1.04727
1.04753
1.04772
1.04836
1.04802
1.04859
1.04851
1.04855
1.04853
1.04829
1.04804
1.04789
1.04779
1.04758
1.04705
1.04692
1.04706
1.04637
1.04692
1.04729
1.04755
1.04846
1.04802
1.04744
1.04739
1.04557
1.04058
1.03729
1.03015
1.01879
1.00707
0.993791
0.98182
0.973364
0.976937
0.990447
1.00526
1.01767
1.02782
1.0354
1.04155
1.04641
1.04473
1.04473
1.04219
1.04243
1.0387
1.03647
1.03121
1.02613
1.02165
1.01558
1.01063
1.00321
0.995927
0.985195
0.977005
0.979407
0.991684
1.01315
1.02503
1.02453
1.02532
1.0233
1.02045
1.01726
1.01282
1.00988
1.06422
1.05531
1.05156
1.05043
1.04994
1.04947
1.04899
1.0485
1.04798
1.04739
1.04686
1.04649
1.04632
1.04647
1.04656
1.04668
1.04679
1.04689
1.0469
1.04679
1.04601
1.04583
1.04578
1.0461
1.04651
1.04757
1.04786
1.04838
1.04869
1.04878
1.04932
1.04716
1.04726
1.04752
1.04768
1.04837
1.04793
1.0486
1.04842
1.04844
1.0484
1.04821
1.048
1.04788
1.04777
1.04756
1.047
1.04684
1.04689
1.0463
1.0468
1.04714
1.04724
1.04796
1.04668
1.04502
1.03952
1.02966
1.01495
0.994144
0.965017
0.925079
0.875922
0.821531
0.764363
0.706355
0.669222
0.66934
0.697426
0.783894
0.879985
0.955803
1.01611
1.03584
1.03428
1.03325
1.03023
1.02387
1.01344
0.997638
0.977164
0.954949
0.941134
0.933743
0.928746
0.920309
0.911009
0.900489
0.900502
0.908616
0.932936
0.970455
0.979674
0.976584
0.966821
0.954183
0.945962
0.94116
0.937503
0.929214
1.06289
1.0544
1.05069
1.04985
1.04959
1.04924
1.04892
1.0485
1.048
1.04735
1.04693
1.04657
1.04633
1.04652
1.04662
1.04673
1.04687
1.04691
1.04689
1.04676
1.04605
1.04585
1.04583
1.04615
1.04658
1.04752
1.04785
1.04832
1.04859
1.04867
1.04906
1.04739
1.04717
1.04749
1.04757
1.04824
1.04746
1.0477
1.04646
1.04544
1.04549
1.04623
1.0468
1.0471
1.04713
1.04661
1.04514
1.04374
1.04303
1.04328
1.04444
1.04538
1.04581
1.04617
1.04352
1.03711
1.02128
0.993422
0.953954
0.905753
0.850197
0.791247
0.732868
0.678589
0.628542
0.581296
0.535116
0.490272
0.475699
0.490416
0.578289
0.792268
0.966716
1.00762
1.00643
1.00232
0.990742
0.971173
0.940191
0.895976
0.839325
0.783028
0.746002
0.730801
0.719006
0.692416
0.678212
0.687358
0.716463
0.765015
0.841465
0.901472
0.903286
0.889051
0.857996
0.822525
0.796572
0.780037
0.771276
0.755901
1.06144
1.05268
1.05005
1.04957
1.04937
1.04905
1.04883
1.04855
1.04806
1.04748
1.04708
1.04669
1.04653
1.04664
1.04671
1.04674
1.04681
1.04689
1.04687
1.04683
1.04609
1.04581
1.04588
1.0462
1.0466
1.04745
1.04786
1.04823
1.04839
1.04836
1.04859
1.04732
1.04708
1.04732
1.04723
1.04783
1.04587
1.04191
1.02657
0.99841
0.996924
1.01104
1.02489
1.03317
1.03855
1.03936
1.03541
1.01694
0.99275
0.995638
1.00733
1.02068
1.03257
1.03898
1.03468
1.01815
0.981564
0.92943
0.870297
0.809975
0.751355
0.696708
0.64602
0.599094
0.555766
0.515188
0.476282
0.435534
0.391849
0.382273
0.410359
0.554631
0.840544
0.952957
0.952389
0.936292
0.903336
0.859518
0.809126
0.751468
0.688996
0.628971
0.581109
0.549148
0.520591
0.474305
0.445169
0.45373
0.485263
0.554798
0.6869
0.806262
0.816002
0.80186
0.76494
0.719047
0.678287
0.644295
0.620589
0.596605
1.05745
1.05062
1.04857
1.04851
1.04872
1.04862
1.04856
1.04837
1.04799
1.04753
1.04708
1.04673
1.04656
1.04668
1.04673
1.04678
1.04686
1.0469
1.04684
1.04671
1.04629
1.04584
1.04591
1.04621
1.04668
1.04737
1.04771
1.04778
1.04708
1.04542
1.04506
1.04527
1.0462
1.04667
1.04639
1.04643
1.04109
1.02572
0.977516
0.884734
0.808865
0.815044
0.868481
0.945942
0.993537
1.01353
1.00956
0.980543
0.911222
0.869154
0.8788
0.922966
0.9882
1.02183
1.01713
0.989751
0.932484
0.859731
0.785603
0.719325
0.660865
0.608051
0.55931
0.513165
0.468794
0.427391
0.391579
0.361213
0.331067
0.314672
0.324614
0.396334
0.650387
0.879946
0.890807
0.865372
0.809736
0.745913
0.685717
0.628021
0.57038
0.514342
0.463072
0.422574
0.389144
0.34943
0.322515
0.324146
0.338718
0.385113
0.507237
0.676353
0.710367
0.699979
0.667244
0.622387
0.579865
0.542602
0.511983
0.473928
1.04738
1.04688
1.04715
1.04781
1.04833
1.04844
1.04847
1.04838
1.04809
1.04763
1.04715
1.04685
1.04673
1.04681
1.04676
1.04682
1.04684
1.04689
1.04683
1.04664
1.04668
1.04572
1.04585
1.04617
1.04668
1.047
1.04649
1.04435
1.03556
1.01086
0.998783
1.0168
1.03088
1.03848
1.0415
1.04198
1.03343
1.00631
0.934116
0.819473
0.692407
0.630527
0.639734
0.693934
0.82359
0.937684
0.960844
0.944345
0.883015
0.785976
0.75609
0.782618
0.878312
0.980184
0.984254
0.950959
0.876037
0.785216
0.701337
0.631749
0.570965
0.51625
0.464796
0.414889
0.370184
0.333961
0.309694
0.294385
0.281628
0.271063
0.274234
0.308167
0.471659
0.778752
0.834374
0.811713
0.75042
0.67745
0.610131
0.549085
0.490729
0.433288
0.379772
0.33658
0.309941
0.293385
0.28629
0.28478
0.289513
0.305348
0.372923
0.521614
0.597622
0.594697
0.573011
0.537342
0.500595
0.466362
0.437479
0.395716
1.04605
1.04542
1.04623
1.04702
1.04755
1.04786
1.04802
1.04799
1.04789
1.0476
1.04711
1.0468
1.04674
1.04676
1.04678
1.04682
1.04683
1.04685
1.04673
1.04654
1.04664
1.04574
1.04582
1.04585
1.04596
1.04486
1.04211
1.03322
0.997225
0.889218
0.743465
0.785262
0.880749
0.95016
0.99486
1.02238
1.0186
0.986183
0.904988
0.78615
0.659814
0.552657
0.503143
0.507807
0.55382
0.699429
0.853704
0.867541
0.835959
0.756013
0.670294
0.671237
0.737942
0.890854
0.933846
0.904364
0.821539
0.718326
0.625304
0.549119
0.483608
0.425434
0.374476
0.32838
0.296634
0.278813
0.273051
0.271969
0.267876
0.259182
0.259731
0.274368
0.354697
0.634681
0.767355
0.749758
0.686524
0.607925
0.538554
0.478988
0.422047
0.367401
0.318789
0.28756
0.282221
0.288259
0.294292
0.28838
0.284552
0.288685
0.312526
0.396317
0.472994
0.479086
0.470237
0.450926
0.427875
0.404062
0.382546
0.346477
1.04051
1.04377
1.04492
1.04613
1.04653
1.0469
1.04741
1.04771
1.04775
1.04753
1.04695
1.04666
1.04676
1.04669
1.04668
1.04655
1.04625
1.04574
1.04462
1.04322
1.04391
1.04368
1.04383
1.04317
1.04145
1.03648
1.02717
1.00247
0.926842
0.75782
0.530739
0.417016
0.45213
0.58909
0.792196
0.94579
0.982789
0.956755
0.877447
0.757008
0.632489
0.522903
0.435042
0.389991
0.392866
0.436771
0.588533
0.717991
0.718086
0.680605
0.606095
0.585433
0.624677
0.776286
0.869856
0.847154
0.76477
0.655338
0.555118
0.47483
0.406535
0.35074
0.307351
0.278301
0.268313
0.269112
0.273856
0.286017
0.286701
0.278756
0.267759
0.273924
0.310988
0.51141
0.696414
0.689356
0.631878
0.552733
0.482746
0.422275
0.366148
0.31333
0.280592
0.279239
0.288819
0.322492
0.345882
0.340012
0.318022
0.298418
0.303017
0.330791
0.373573
0.388802
0.387116
0.381479
0.371796
0.357948
0.342936
0.314884
1.04174
1.04234
1.03931
1.03102
1.02066
1.01844
1.02496
1.02993
1.03144
1.03625
1.0403
1.04202
1.04314
1.04252
1.04101
1.03824
1.03333
1.02332
1.00298
0.975951
0.97668
0.993489
1.00698
1.01443
1.0137
1.00252
0.980082
0.92908
0.818026
0.632586
0.43202
0.297331
0.280335
0.314099
0.420705
0.749537
0.927374
0.912579
0.834501
0.70657
0.573909
0.464944
0.383014
0.325008
0.307833
0.317003
0.3683
0.472575
0.531149
0.534531
0.513998
0.501743
0.530613
0.670869
0.798421
0.782862
0.70388
0.591342
0.487979
0.406615
0.342636
0.295843
0.270146
0.264387
0.265071
0.269648
0.280929
0.302521
0.316328
0.31292
0.292568
0.284743
0.305807
0.438278
0.630446
0.632402
0.580259
0.501502
0.429299
0.367717
0.311372
0.275863
0.274632
0.286853
0.323251
0.365336
0.376289
0.372502
0.356505
0.322413
0.306767
0.311158
0.322074
0.335558
0.339453
0.338683
0.335418
0.328065
0.318356
0.298106
1.02776
0.992714
0.91205
0.796486
0.66637
0.584759
0.601241
0.640671
0.631281
0.657799
0.769968
0.859409
0.908166
0.919652
0.902452
0.87125
0.830035
0.776835
0.696713
0.563441
0.486053
0.53355
0.629901
0.739789
0.864441
0.886981
0.858382
0.781964
0.653695
0.479421
0.33016
0.241681
0.206607
0.212016
0.269301
0.460315
0.811504
0.830169
0.759518
0.622227
0.486817
0.387707
0.322294
0.283447
0.274041
0.277158
0.297813
0.335436
0.3609
0.382644
0.396164
0.405448
0.44202
0.584714
0.728646
0.718628
0.64569
0.534313
0.430213
0.351779
0.295887
0.266431
0.259972
0.259986
0.258786
0.260121
0.267957
0.287143
0.322781
0.329324
0.316342
0.299929
0.316119
0.423408
0.585802
0.585669
0.531844
0.452564
0.380718
0.318493
0.273435
0.267529
0.278655
0.317621
0.360213
0.381865
0.385079
0.382945
0.374586
0.348171
0.31647
0.309095
0.310775
0.314766
0.319562
0.320481
0.319426
0.315461
0.309068
0.295225
0.21934
0.375759
0.354454
0.270741
0.1955
0.18663
0.208401
0.219202
0.205226
0.20396
0.232454
0.331698
0.535406
0.597092
0.563402
0.505569
0.459414
0.428142
0.391077
0.312827
0.23863
0.237109
0.277363
0.380249
0.600558
0.70415
0.681627
0.607346
0.484581
0.351223
0.258798
0.196786
0.188295
0.189968
0.20127
0.304578
0.642283
0.721186
0.661422
0.529974
0.405847
0.326276
0.283174
0.267168
0.264305
0.266362
0.274944
0.278656
0.274536
0.280023
0.292057
0.30991
0.354455
0.504279
0.661218
0.654593
0.586047
0.477189
0.377387
0.308059
0.267663
0.255643
0.250768
0.247899
0.236267
0.228115
0.228643
0.249943
0.305168
0.334682
0.329133
0.316249
0.331546
0.433603
0.556355
0.54655
0.485462
0.404769
0.333007
0.277162
0.257896
0.264432
0.298095
0.34562
0.370702
0.377155
0.381927
0.384175
0.379973
0.364213
0.32956
0.31128
0.309657
0.31073
0.313053
0.314138
0.313996
0.3127
0.309669
0.300448
0.160824
0.174265
0.176572
0.16389
0.161694
0.159615
0.161243
0.161797
0.161055
0.160772
0.181274
0.26646
0.36529
0.371415
0.335766
0.292053
0.278846
0.272267
0.250387
0.200117
0.181919
0.180834
0.188
0.220024
0.334179
0.504426
0.504949
0.446935
0.352506
0.265768
0.19698
0.184227
0.211404
0.216921
0.217304
0.27196
0.530181
0.613133
0.556129
0.436317
0.337988
0.285826
0.269258
0.263733
0.256763
0.251779
0.25276
0.236991
0.221002
0.220075
0.226663
0.240588
0.28344
0.424709
0.592974
0.589687
0.526285
0.422742
0.333555
0.280077
0.253229
0.241965
0.237314
0.221097
0.202007
0.199125
0.207922
0.24036
0.303832
0.341079
0.339184
0.332555
0.350777
0.456271
0.532815
0.510519
0.439704
0.358889
0.290802
0.250568
0.248441
0.267165
0.316792
0.352145
0.354572
0.356362
0.364025
0.377496
0.378027
0.369589
0.341952
0.316764
0.310364
0.309187
0.309093
0.309623
0.310663
0.310686
0.309542
0.304454
0.15515
0.156369
0.157232
0.155303
0.155005
0.155116
0.155597
0.155404
0.154376
0.155609
0.161837
0.189613
0.219763
0.221972
0.203693
0.191033
0.190515
0.188906
0.176399
0.167163
0.172167
0.196254
0.233706
0.259481
0.334977
0.399115
0.38509
0.334803
0.267386
0.192499
0.177405
0.197957
0.270262
0.266009
0.255462
0.295741
0.482003
0.521614
0.461359
0.35788
0.291617
0.268275
0.254891
0.252633
0.257525
0.219269
0.207282
0.196203
0.202002
0.205337
0.205362
0.210446
0.233964
0.351446
0.522619
0.524678
0.468149
0.375749
0.300317
0.257531
0.234441
0.22472
0.20942
0.189174
0.185888
0.194483
0.220752
0.263718
0.320174
0.352147
0.352145
0.351432
0.376551
0.48215
0.510301
0.473762
0.395364
0.316775
0.257199
0.234564
0.239588
0.271121
0.313047
0.325986
0.331012
0.337813
0.350352
0.369002
0.374969
0.369727
0.350853
0.324794
0.311753
0.303845
0.299851
0.299925
0.301549
0.303831
0.304137
0.298627
0.156102
0.155662
0.155564
0.155529
0.155384
0.155237
0.15517
0.155049
0.154574
0.1543
0.157789
0.160893
0.162355
0.16288
0.161425
0.16055
0.16061
0.160272
0.158418
0.15858
0.171564
0.211347
0.246877
0.281604
0.307579
0.321225
0.307674
0.25399
0.189729
0.164622
0.170055
0.228052
0.31004
0.313255
0.306022
0.345693
0.454887
0.449499
0.38097
0.303528
0.265914
0.261491
0.241797
0.216213
0.187267
0.18025
0.183498
0.2187
0.257287
0.252422
0.230972
0.217693
0.228027
0.306465
0.459875
0.465851
0.414507
0.334048
0.270738
0.235395
0.217293
0.197803
0.180363
0.17757
0.184553
0.21816
0.262589
0.304837
0.340324
0.361577
0.366676
0.373004
0.415117
0.494811
0.489557
0.433841
0.352812
0.280063
0.232581
0.223318
0.231649
0.261865
0.28455
0.294151
0.304848
0.320673
0.339464
0.360696
0.370784
0.367649
0.354841
0.331834
0.311504
0.293735
0.282788
0.282027
0.284308
0.28862
0.290653
0.283545
0.156143
0.156172
0.156189
0.15622
0.156237
0.156283
0.156345
0.15637
0.156193
0.155614
0.155483
0.156689
0.158678
0.158553
0.157155
0.156858
0.157161
0.156708
0.155502
0.155961
0.160462
0.1838
0.22507
0.25802
0.269899
0.258267
0.223475
0.181947
0.161556
0.157503
0.168363
0.242982
0.344449
0.37369
0.383735
0.412464
0.421961
0.382417
0.311019
0.265012
0.224018
0.196783
0.176368
0.165763
0.162999
0.171206
0.224522
0.300068
0.327112
0.318341
0.279988
0.235218
0.237908
0.301722
0.418744
0.417683
0.367331
0.296042
0.242408
0.217039
0.195842
0.174213
0.169801
0.17349
0.198747
0.251584
0.299771
0.331027
0.352067
0.367662
0.379778
0.400957
0.461753
0.49111
0.462965
0.393134
0.31404
0.249546
0.216143
0.213191
0.222915
0.242309
0.252802
0.261089
0.277786
0.304337
0.3299
0.351985
0.364568
0.363654
0.352855
0.331101
0.30518
0.277955
0.260435
0.258265
0.260641
0.265687
0.268384
0.258936
0.156233
0.156274
0.15633
0.15642
0.15655
0.156755
0.15712
0.157616
0.157884
0.157803
0.157355
0.156968
0.156757
0.156651
0.156818
0.157486
0.158231
0.158202
0.158232
0.157792
0.158188
0.161156
0.169257
0.184014
0.192493
0.183234
0.165381
0.16476
0.162456
0.157812
0.164261
0.250954
0.355438
0.397119
0.402771
0.400991
0.370933
0.311668
0.267219
0.211751
0.175029
0.162066
0.159693
0.156764
0.156537
0.182303
0.273816
0.347729
0.363333
0.351673
0.314271
0.257556
0.253835
0.315069
0.391908
0.379083
0.324899
0.261712
0.221608
0.198974
0.174492
0.16378
0.16485
0.175018
0.218238
0.279926
0.32163
0.343546
0.358762
0.373553
0.394367
0.436761
0.481541
0.475913
0.428244
0.352573
0.279431
0.226078
0.204736
0.204831
0.213619
0.223139
0.226786
0.233098
0.252146
0.286965
0.319916
0.342571
0.355771
0.356409
0.347696
0.325495
0.291986
0.256864
0.23644
0.233234
0.234695
0.238122
0.239935
0.23075
0.15627
0.156358
0.156495
0.156748
0.157188
0.157884
0.158932
0.160126
0.160742
0.160722
0.16051
0.16039
0.160617
0.161317
0.162673
0.164731
0.166658
0.167089
0.168101
0.167538
0.165743
0.167
0.168734
0.167019
0.166335
0.169129
0.17695
0.17917
0.174137
0.16324
0.15986
0.222198
0.305508
0.361145
0.367576
0.352987
0.305032
0.266239
0.210297
0.16977
0.162915
0.161827
0.158119
0.154155
0.15659
0.197942
0.299605
0.37681
0.379187
0.365873
0.327202
0.274787
0.276766
0.336926
0.369431
0.342934
0.285989
0.234178
0.20343
0.178041
0.161899
0.158348
0.162065
0.181322
0.235944
0.299442
0.331297
0.348933
0.363607
0.381703
0.413701
0.461438
0.475176
0.451355
0.388711
0.313858
0.249062
0.208564
0.197629
0.199194
0.205163
0.207589
0.208212
0.212807
0.230094
0.26647
0.307005
0.331923
0.344612
0.346129
0.337993
0.313003
0.271725
0.234427
0.216175
0.211515
0.211661
0.212946
0.213664
0.206337
0.156401
0.156694
0.157245
0.158164
0.159733
0.162362
0.165656
0.16782
0.168074
0.167631
0.167141
0.167189
0.168046
0.169944
0.172895
0.176468
0.179217
0.180591
0.184013
0.186708
0.188389
0.196742
0.20571
0.206557
0.205996
0.210619
0.213809
0.209297
0.197585
0.176406
0.160006
0.187117
0.266565
0.301165
0.30439
0.290907
0.25444
0.208868
0.168188
0.165533
0.169217
0.167201
0.163446
0.156008
0.157355
0.205763
0.328157
0.390272
0.386001
0.36645
0.324586
0.294952
0.308372
0.353958
0.350021
0.306349
0.25166
0.214535
0.182159
0.163487
0.155786
0.155201
0.161246
0.188883
0.250013
0.310223
0.335929
0.351731
0.36776
0.391249
0.429256
0.459366
0.455436
0.415707
0.347624
0.278258
0.224965
0.197105
0.192436
0.195217
0.197335
0.196236
0.195739
0.19975
0.212838
0.243624
0.28892
0.318954
0.331511
0.333017
0.323528
0.292909
0.247089
0.215672
0.196075
0.189818
0.189594
0.191146
0.192821
0.193531
0.157142
0.158839
0.161408
0.165538
0.172204
0.180136
0.186683
0.187456
0.186167
0.183946
0.182812
0.183089
0.185052
0.188723
0.193167
0.196745
0.198676
0.200926
0.207665
0.217675
0.231933
0.258118
0.281299
0.285857
0.281363
0.275819
0.266566
0.251944
0.232396
0.202055
0.167858
0.163227
0.202475
0.236903
0.244815
0.229831
0.195388
0.165846
0.1692
0.180835
0.182897
0.180028
0.171277
0.158317
0.157408
0.208511
0.336359
0.397814
0.390742
0.363793
0.333454
0.329807
0.347238
0.35212
0.325868
0.270514
0.227043
0.193625
0.166207
0.156699
0.15315
0.15341
0.162113
0.193179
0.258039
0.314743
0.338033
0.353466
0.371214
0.39764
0.429307
0.440553
0.424511
0.374701
0.307745
0.246617
0.206691
0.189047
0.188483
0.189835
0.189303
0.185756
0.185093
0.188815
0.20049
0.223528
0.264979
0.300689
0.315239
0.316235
0.3028
0.266441
0.225687
0.196412
0.178281
0.175461
0.17662
0.180113
0.183934
0.190129
0.165902
0.177748
0.189325
0.201912
0.219294
0.236132
0.237866
0.233453
0.225736
0.220146
0.218884
0.220065
0.224151
0.229423
0.232464
0.233088
0.234328
0.239329
0.255056
0.278116
0.310546
0.350342
0.370902
0.367527
0.357145
0.340934
0.322824
0.302834
0.280621
0.245664
0.194443
0.167607
0.163611
0.175317
0.182313
0.172698
0.163982
0.176365
0.196811
0.203244
0.201272
0.193991
0.180319
0.161732
0.156692
0.194222
0.315934
0.40022
0.398989
0.379854
0.366966
0.365751
0.36033
0.341122
0.292919
0.240608
0.207639
0.174303
0.15821
0.153765
0.152347
0.152729
0.16347
0.194427
0.260081
0.315577
0.338626
0.354233
0.372318
0.3957
0.413491
0.41104
0.386301
0.332172
0.270972
0.222347
0.192613
0.184409
0.184606
0.184357
0.18042
0.175919
0.175179
0.17829
0.188316
0.208096
0.239088
0.275052
0.292521
0.293058
0.275377
0.239922
0.206609
0.177215
0.168118
0.168319
0.171994
0.178279
0.183754
0.187708
0.607599
0.443833
0.40272
0.406891
0.408054
0.394708
0.367594
0.339273
0.322148
0.314854
0.314984
0.317569
0.317375
0.31476
0.308825
0.306367
0.31102
0.329994
0.370422
0.408783
0.441725
0.462143
0.461635
0.451371
0.431697
0.40952
0.388278
0.365832
0.344768
0.309574
0.251519
0.204803
0.182114
0.173884
0.171349
0.178834
0.199577
0.223099
0.231822
0.230147
0.223696
0.211258
0.191389
0.166902
0.156451
0.179343
0.287297
0.393848
0.404356
0.396532
0.383627
0.370326
0.351077
0.311099
0.256419
0.218725
0.182743
0.160901
0.156401
0.154604
0.153177
0.152662
0.163979
0.192551
0.245566
0.304387
0.332745
0.349335
0.364633
0.37922
0.384053
0.375438
0.342676
0.289993
0.238913
0.20316
0.183006
0.180361
0.179765
0.176859
0.170685
0.166805
0.165942
0.167974
0.175365
0.192361
0.218297
0.244748
0.26219
0.262538
0.245103
0.218376
0.182047
0.164963
0.162656
0.165464
0.171713
0.178508
0.18205
0.181846
1.12075
1.01307
0.924996
0.854741
0.788935
0.731576
0.677973
0.641115
0.61776
0.597072
0.577181
0.55282
0.530837
0.514379
0.510591
0.519937
0.546738
0.577298
0.602104
0.60379
0.600575
0.592422
0.577471
0.55528
0.527197
0.49929
0.473471
0.449726
0.433954
0.404395
0.349851
0.304589
0.278814
0.267321
0.258005
0.266729
0.275167
0.275033
0.271132
0.264365
0.253013
0.233128
0.205368
0.176102
0.158763
0.165407
0.262703
0.356773
0.388468
0.384775
0.37209
0.35153
0.314926
0.267838
0.229291
0.188459
0.163658
0.158947
0.159061
0.158099
0.155017
0.152504
0.161034
0.185223
0.226671
0.280006
0.314941
0.332841
0.344415
0.350645
0.348743
0.331983
0.29607
0.250338
0.214249
0.185685
0.176819
0.175458
0.172891
0.167423
0.161794
0.159102
0.158326
0.159382
0.163816
0.174762
0.197198
0.220642
0.232638
0.233057
0.220611
0.188266
0.164928
0.158564
0.159427
0.165223
0.170744
0.174797
0.174812
0.170309
1.17452
1.16227
1.14441
1.1206
1.09397
1.06854
1.04391
1.02076
0.996469
0.968775
0.94043
0.913935
0.897051
0.885923
0.88164
0.881371
0.876967
0.860286
0.838037
0.810636
0.787014
0.765055
0.738563
0.702895
0.661261
0.621581
0.589091
0.564313
0.54828
0.520961
0.475522
0.437032
0.413208
0.39449
0.367949
0.351073
0.339675
0.330106
0.320265
0.307038
0.287833
0.259556
0.226784
0.193866
0.168435
0.159109
0.209221
0.295722
0.345465
0.349171
0.334452
0.303896
0.265509
0.235224
0.193251
0.164512
0.160574
0.164612
0.166521
0.163769
0.157085
0.152691
0.157275
0.173388
0.208522
0.246052
0.280046
0.301041
0.310783
0.312131
0.304484
0.28347
0.251652
0.220565
0.190487
0.174113
0.170831
0.168899
0.164364
0.158963
0.156155
0.155294
0.155173
0.155465
0.156871
0.161445
0.173204
0.191423
0.205131
0.203875
0.185728
0.165636
0.15647
0.155363
0.157714
0.163089
0.164735
0.165547
0.164123
0.159953
1.17776
1.17688
1.17517
1.17224
1.16841
1.16412
1.15888
1.1525
1.14456
1.1353
1.12512
1.11459
1.10549
1.09727
1.08957
1.08134
1.06901
1.05128
1.03062
1.00629
0.982747
0.957197
0.922915
0.873439
0.815774
0.760694
0.714525
0.674968
0.638657
0.602045
0.562316
0.524676
0.493433
0.464385
0.432267
0.415639
0.404259
0.391072
0.373565
0.352421
0.325477
0.291842
0.2587
0.22398
0.191455
0.163308
0.170171
0.238338
0.280861
0.286397
0.274563
0.254503
0.226223
0.191288
0.164101
0.163572
0.173264
0.178084
0.176909
0.170179
0.161465
0.155352
0.155048
0.161256
0.182078
0.218706
0.240705
0.256466
0.264916
0.264639
0.256154
0.239999
0.219371
0.19208
0.172386
0.16631
0.164193
0.16095
0.157226
0.155502
0.155559
0.156953
0.157964
0.157358
0.15611
0.156468
0.15917
0.166291
0.172661
0.171217
0.162273
0.155988
0.153301
0.153646
0.155507
0.157494
0.157557
0.157588
0.156993
0.155989
1.17783
1.17776
1.17758
1.17722
1.1767
1.17602
1.17507
1.17378
1.17202
1.16994
1.16754
1.16486
1.16208
1.15895
1.15534
1.15119
1.14551
1.13796
1.12839
1.11584
1.10084
1.07819
1.04043
0.987411
0.919152
0.847512
0.779359
0.721638
0.67256
0.628813
0.587584
0.55045
0.520901
0.498124
0.478527
0.470093
0.459697
0.441668
0.416914
0.38972
0.359391
0.326598
0.296781
0.263879
0.228335
0.183982
0.16253
0.176684
0.215079
0.226149
0.219959
0.20282
0.176639
0.161809
0.168672
0.187781
0.195837
0.195157
0.189814
0.179862
0.171946
0.164771
0.158903
0.157711
0.162344
0.180383
0.201399
0.220454
0.226369
0.225707
0.220076
0.206452
0.18547
0.169373
0.161767
0.159276
0.157465
0.156323
0.15675
0.159493
0.163991
0.168447
0.170371
0.168472
0.164013
0.159325
0.157108
0.157725
0.158149
0.157817
0.155428
0.153061
0.152674
0.153155
0.154331
0.155273
0.15585
0.156067
0.157747
0.160434
1.17755
1.17752
1.17745
1.17733
1.17718
1.177
1.17678
1.17652
1.17619
1.17583
1.17541
1.17493
1.17439
1.17367
1.17273
1.17143
1.16947
1.16661
1.1625
1.15598
1.14447
1.12341
1.08174
1.01932
0.941648
0.858117
0.777561
0.708113
0.652277
0.608772
0.575026
0.546719
0.527533
0.517246
0.510202
0.504186
0.490204
0.466358
0.437423
0.407767
0.379337
0.352872
0.329026
0.30204
0.272282
0.230149
0.189612
0.166326
0.162755
0.166657
0.166063
0.162143
0.169003
0.184709
0.209263
0.222292
0.222515
0.217619
0.207982
0.199027
0.195337
0.189139
0.17847
0.167057
0.159324
0.159796
0.167183
0.177849
0.183667
0.185303
0.180608
0.172036
0.163328
0.158073
0.156011
0.155863
0.15717
0.16117
0.168591
0.177469
0.186201
0.191343
0.191821
0.187598
0.180531
0.172267
0.164974
0.160217
0.158223
0.156837
0.156015
0.155638
0.156549
0.15801
0.160611
0.162055
0.165123
0.166065
0.173068
0.179885
1.17721
1.17718
1.17713
1.17705
1.17696
1.17687
1.17678
1.17671
1.17665
1.17661
1.17657
1.17654
1.17649
1.17639
1.17623
1.17594
1.17539
1.17439
1.17241
1.16848
1.15674
1.12795
1.07137
0.986187
0.883598
0.78289
0.699401
0.64123
0.601751
0.57349
0.555101
0.540316
0.535925
0.53574
0.533274
0.522866
0.500137
0.471193
0.440664
0.410875
0.384897
0.364197
0.346371
0.328478
0.310624
0.286745
0.256508
0.217572
0.192503
0.187204
0.187124
0.201497
0.233084
0.248568
0.258501
0.26229
0.260074
0.251288
0.241551
0.240858
0.243637
0.239431
0.226096
0.205593
0.180192
0.166763
0.160669
0.159397
0.16007
0.160575
0.15959
0.158432
0.157997
0.158047
0.16009
0.164864
0.173983
0.186768
0.200797
0.212304
0.219422
0.220165
0.216597
0.208532
0.19946
0.189645
0.18046
0.172851
0.168174
0.165795
0.166269
0.168462
0.174266
0.179143
0.185718
0.188922
0.196889
0.199171
0.213506
0.218541
1.17692
1.17691
1.17687
1.17684
1.1768
1.17676
1.17673
1.17672
1.17673
1.17676
1.1768
1.17686
1.17692
1.17698
1.17701
1.177
1.17686
1.17652
1.17527
1.17101
1.15768
1.12159
1.04838
0.939412
0.815678
0.708722
0.635872
0.594408
0.570076
0.556274
0.54783
0.54961
0.557286
0.560253
0.553185
0.530602
0.498153
0.462373
0.427972
0.4007
0.381622
0.365433
0.351271
0.341367
0.334645
0.327411
0.316941
0.300324
0.286022
0.287606
0.288179
0.295779
0.310376
0.311201
0.313911
0.318264
0.315241
0.305969
0.3086
0.322378
0.333813
0.332845
0.319247
0.293256
0.252955
0.222051
0.196881
0.179509
0.172803
0.169193
0.170278
0.172495
0.17627
0.183502
0.194266
0.207479
0.223468
0.238792
0.251623
0.256728
0.255432
0.24877
0.240278
0.230599
0.221239
0.211261
0.203308
0.196808
0.19356
0.194717
0.202749
0.212424
0.227043
0.235701
0.248142
0.25532
0.271973
0.273648
0.288528
0.280684
1.17679
1.17679
1.17678
1.17677
1.17677
1.17677
1.17678
1.17681
1.17685
1.17691
1.17697
1.17705
1.17713
1.17722
1.1773
1.17736
1.17732
1.17695
1.17549
1.17066
1.15569
1.11498
1.03183
0.906897
0.770731
0.665292
0.604916
0.574867
0.558359
0.555208
0.560943
0.577725
0.591253
0.588771
0.568008
0.528816
0.480805
0.435402
0.400469
0.380179
0.36981
0.360461
0.352197
0.348853
0.352382
0.35702
0.359737
0.359445
0.358553
0.368009
0.369677
0.370836
0.381586
0.381421
0.38519
0.393044
0.392769
0.395832
0.416321
0.451696
0.472101
0.476923
0.465174
0.439729
0.394203
0.357241
0.32119
0.288797
0.270389
0.254571
0.251888
0.251351
0.257757
0.267672
0.277757
0.286946
0.296846
0.303029
0.303778
0.297117
0.285963
0.27433
0.267082
0.261944
0.260249
0.258494
0.26158
0.266491
0.276718
0.293986
0.318124
0.334005
0.355079
0.36914
0.394135
0.40603
0.421435
0.413278
0.407555
0.360937
1.17682
1.17683
1.17683
1.17684
1.17686
1.17689
1.17693
1.17697
1.17703
1.17709
1.17716
1.17724
1.17732
1.17742
1.17751
1.17758
1.17756
1.17726
1.17604
1.17188
1.1588
1.12052
1.03523
0.901358
0.756814
0.651417
0.59654
0.570062
0.562137
0.567779
0.590061
0.619717
0.625862
0.613381
0.573875
0.513566
0.453028
0.405431
0.376706
0.365611
0.361754
0.357647
0.356426
0.362915
0.38067
0.397461
0.410553
0.418665
0.424517
0.437609
0.442303
0.445399
0.45846
0.459524
0.464183
0.473162
0.479544
0.494188
0.527394
0.571517
0.601096
0.605635
0.589818
0.556407
0.517599
0.484564
0.454959
0.429271
0.408375
0.388764
0.378934
0.372576
0.371718
0.372003
0.371773
0.37027
0.367685
0.360258
0.348866
0.332362
0.316215
0.307827
0.316325
0.334255
0.36216
0.396215
0.44968
0.498192
0.533929
0.564752
0.591121
0.603496
0.625195
0.641815
0.66388
0.663764
0.652897
0.60627
0.553358
0.451786
1.17696
1.17697
1.17698
1.17701
1.17704
1.17708
1.17712
1.17718
1.17723
1.1773
1.17736
1.17744
1.17752
1.17761
1.17769
1.17776
1.17775
1.17748
1.17634
1.17248
1.16023
1.12374
1.03896
0.903295
0.757298
0.654196
0.600965
0.576408
0.576775
0.592874
0.630108
0.65968
0.658294
0.630641
0.566656
0.488326
0.421723
0.378717
0.36044
0.358704
0.358762
0.359805
0.369261
0.396082
0.431676
0.462298
0.484953
0.498198
0.504007
0.517986
0.525343
0.529813
0.542035
0.542611
0.544019
0.546105
0.548166
0.557692
0.584441
0.626104
0.663764
0.668522
0.648443
0.602394
0.549676
0.511981
0.488393
0.472622
0.463518
0.457516
0.456682
0.454897
0.452672
0.447648
0.440187
0.431298
0.420967
0.406612
0.389722
0.367279
0.358247
0.375499
0.438577
0.535707
0.642574
0.737683
0.824756
0.875339
0.893848
0.905869
0.909571
0.907547
0.907526
0.905099
0.899967
0.880566
0.841598
0.771378
0.696428
0.564376
1.17716
1.17717
1.17719
1.17722
1.17725
1.17729
1.17734
1.17739
1.17744
1.1775
1.17756
1.17763
1.17771
1.1778
1.17788
1.17795
1.17797
1.1778
1.17699
1.17414
1.16484
1.13632
1.06144
0.928285
0.777575
0.671876
0.616046
0.596442
0.600915
0.62615
0.673014
0.697876
0.689187
0.640339
0.550654
0.458528
0.392422
0.359333
0.353524
0.356803
0.361214
0.37209
0.404155
0.462022
0.525479
0.574641
0.60855
0.626128
0.627637
0.638243
0.644122
0.64609
0.655094
0.65348
0.649313
0.638904
0.622157
0.609749
0.615244
0.640889
0.689213
0.696861
0.673008
0.610364
0.54511
0.507518
0.493424
0.489964
0.492497
0.497371
0.49995
0.499876
0.495138
0.482648
0.466674
0.455756
0.44769
0.437765
0.421919
0.410262
0.437106
0.550726
0.743393
0.877589
0.968158
1.02566
1.06338
1.07723
1.07707
1.07531
1.06964
1.05808
1.0438
1.02816
1.01068
0.984391
0.944655
0.883995
0.813948
0.681045
1.17738
1.17739
1.1774
1.17743
1.17747
1.17751
1.17755
1.1776
1.17765
1.1777
1.17776
1.17783
1.1779
1.17798
1.17806
1.17813
1.17815
1.17804
1.17746
1.17538
1.16854
1.14733
1.08694
0.966733
0.817402
0.70526
0.643501
0.627634
0.63384
0.664989
0.721352
0.741155
0.720419
0.643923
0.526757
0.427188
0.368712
0.34984
0.352658
0.360556
0.3742
0.408652
0.485363
0.592251
0.692154
0.757895
0.799303
0.822032
0.823359
0.827595
0.8279
0.824415
0.82663
0.822362
0.814855
0.795811
0.761447
0.718394
0.692276
0.697856
0.728935
0.736209
0.706038
0.624256
0.54067
0.503664
0.497945
0.502659
0.513281
0.518294
0.516194
0.507639
0.491513
0.470665
0.453286
0.448325
0.451011
0.452657
0.455202
0.494913
0.659721
0.872994
1.00586
1.06587
1.09981
1.12085
1.13499
1.13842
1.13687
1.13302
1.1246
1.11001
1.09258
1.07558
1.05831
1.03448
0.999799
0.951933
0.90127
0.806708
1.17759
1.1776
1.17762
1.17764
1.17768
1.17771
1.17776
1.1778
1.17785
1.1779
1.17796
1.17801
1.17808
1.17814
1.17821
1.17828
1.17831
1.17826
1.17796
1.17681
1.17297
1.16066
1.1235
1.03204
0.892231
0.763488
0.685946
0.668442
0.675033
0.711338
0.779289
0.792801
0.753039
0.63979
0.497381
0.399342
0.354559
0.348996
0.356918
0.375473
0.418199
0.514592
0.662419
0.789963
0.863379
0.913609
0.952153
0.981446
0.999403
1.01149
1.01591
1.01316
1.00986
1.00405
0.996591