/*--------------------------------*- C++ -*----------------------------------*\
| =========                 |                                                 |
| \\      /  F ield         | OpenFOAM: The Open Source CFD Toolbox           |
|  \\    /   O peration     | Version:  2.3.0                                 |
|   \\  /    A nd           | Web:      www.OpenFOAM.org                      |
|    \\/     M anipulation  |                                                 |
\*---------------------------------------------------------------------------*/
FoamFile
{
    version     2.0;
    format      ascii;
    class       volScalarField;
    location    "0.05";
    object      T;
}
// * * * * * * * * * * * * * * * * * * * * * * * * * * * * * * * * * * * * * //

dimensions      [0 0 0 1 0 0 0];

internalField   nonuniform List<scalar> 
5000
(
294
294
294
294
294
294
294
294
294
294
294
294
294
294
294
294
294
294
294
294
294
294
294
294
294
294
294
294
294
294
294
294
294
294
294
294
294
294
294.001
294.001
294.001
294.001
294
294
294
294
294.001
294.001
294.001
294.001
294.002
294.005
294.012
294.028
294.07
294.185
294.445
294.948
295.783
297.08
299.033
301.804
305.347
309.131
312.71
315.256
314.045
309.83
305.473
301.934
299.175
297.35
295.892
294.983
294.935
295.057
295.298
295.681
296.259
297.137
298.365
299.791
301.101
302.432
304.052
305.942
308.238
311.264
313.932
313.344
309.732
303.761
300.464
300.169
300.365
300.861
301.578
302.459
303.457
304.533
294
294
294
294
294
294
294
294
294
294
294
294
294
294
294
294
294
294
294
294
294
294
294
294
294
294
294
294
294
294
294
294
294
294
294.001
294.002
294.005
294.012
294.022
294.032
294.03
294.02
294.012
294.008
294.007
294.011
294.019
294.03
294.035
294.032
294.032
294.045
294.087
294.175
294.404
295.069
296.54
299.172
303.207
309.093
318.152
331.518
349.714
372.411
399.691
431.909
455.411
455.243
437.025
389.347
347.515
320.782
302.762
297.793
297.692
298.052
298.975
300.696
303.525
307.92
314.22
321.103
325.779
327.992
329.904
332.687
336.169
339.883
339.906
337.079
328.653
316.484
313.576
314.535
317.617
321.614
324.358
325.898
327.237
330.025
294
294
294
294
294
294
294
294
294
294
294
294
294
294
294
294
294
294
294
294
294
294
294
294
294
294
294
294
294.001
294.002
294.002
294.001
294.001
294.003
294.011
294.034
294.106
294.258
294.534
294.82
294.797
294.547
294.332
294.216
294.189
294.274
294.504
294.851
295.02
294.854
294.645
294.487
294.465
294.657
295.224
297.085
301.424
309.307
321.695
338.38
360.145
386.472
416.724
449.568
484.748
523.358
567.694
618.835
637.544
618.42
525.524
385.629
317.476
305.551
305.401
306.683
310.088
316.177
326.228
342.069
364.786
390.569
409.64
417.972
424.676
440.715
449.717
443.502
425.748
399.222
363.675
340.102
339.389
344.606
357.043
372.166
384.058
391.996
396.437
404.328
294
294
294
294
294
294
294
294
294
294
294
294
294
294
294
294
294
294
294
294
294
294
294
294
294
294
294.002
294.006
294.019
294.042
294.046
294.027
294.017
294.021
294.05
294.145
294.512
295.785
299.829
307.697
308.097
304.061
300.196
297.907
296.459
296.199
297.094
302.085
308.913
307.983
304.723
301.117
297.962
296.579
297.552
302.264
312.916
329.979
351.952
377.698
406.689
438.124
471.998
508.357
547.212
589.611
636.945
695.506
772.222
791.258
737.59
548.056
364.055
322.397
322.016
327.509
339.317
356.355
378.179
406.712
443.12
484.828
524.129
554.135
584.165
640.446
681.678
668.537
625.582
548.077
444.146
379.536
375.04
381.621
399.731
424.784
449.969
473.247
491.234
510.577
294
294
294
294
294
294
294
294
294
294
294
294
294
294
294
294
294
294
294
294
294
294
294
294
294.002
294.007
294.026
294.099
294.325
294.776
294.907
294.532
294.285
294.184
294.226
294.503
295.765
300.108
313.967
346.118
377.991
375.06
352.354
323.968
308.929
303.217
304.14
312.643
335.716
351.611
347.813
331.626
310.441
301.232
302.304
310.367
328.887
356.185
389.205
424.496
461.59
501.047
543.944
592.24
647.451
709.123
773.233
837.474
912.772
959.825
930.749
764.284
468.701
348.655
343.75
354.053
377.855
409.705
445.188
485.524
533.829
591.233
655.863
717.845
779.104
866.773
938.106
933.038
893.106
786.701
599.088
451.296
429.885
436.274
457.382
489.82
525.162
560.766
593.864
640.937
294
294
294
294
294
294
294
294
294
294
294
294
294
294
294
294
294
294
294
294
294.001
294.001
294.002
294.007
294.026
294.094
294.319
294.969
297.338
304.137
307.509
302.26
298.339
296.305
295.436
295.671
297.782
305.465
328.102
373.184
440.524
483.069
476.225
439.344
371.161
326.741
318.859
324.249
346.247
388.168
403.206
389.892
348.218
313.343
311.764
322.652
349.648
389.407
435.262
482.541
533.111
588.841
653.161
730.76
818.262
905.934
976.005
1025.93
1071.75
1112.87
1100.26
980.948
643.5
393.191
366.562
377.052
407.217
450.553
499.563
554.2
619.33
700.278
798.176
899.641
976.277
1030.23
1055.07
1060.18
1042.75
989.705
812.277
583.074
509.777
512.369
531.431
566.128
607.175
651.097
693.535
765.877
294
294
294.001
294.003
294.004
294.003
294.001
294.001
294.001
294
294
294
294
294.001
294.001
294.002
294.003
294.007
294.017
294.026
294.021
294.021
294.035
294.087
294.252
294.62
295.467
297.896
307.925
344.306
410.46
388.864
347.08
322.372
308.272
300.939
301.791
311.352
338.403
388.732
462.038
550.015
603.516
597.973
548.834
435.956
357.962
352.326
365.377
403.327
454.044
453.555
413.201
343.955
328.058
338.906
372.409
425.085
487.427
553.949
628.118
712.777
809.077
921.774
1019.42
1083.18
1105.21
1109.32
1126.03
1163.14
1160.84
1100.02
853.187
481.131
398
407.731
444.624
501.337
564.912
634.265
718.662
824.763
949.517
1051.36
1070.88
1048.45
1026.58
1047.1
1060.7
1046.09
967.332
765
642.22
634.229
645.985
673.157
708.888
750.221
792.137
873.619
294.001
294.008
294.043
294.126
294.201
294.185
294.12
294.077
294.056
294.034
294.022
294.018
294.021
294.031
294.05
294.081
294.142
294.295
294.606
294.919
294.773
294.592
294.556
294.773
295.452
296.792
299.465
306.365
330.569
402.864
572.312
727.429
671.087
516.02
385.068
324.189
312.097
320.621
348.81
403.452
481.728
581
696.6
776.379
770.933
693.922
516.738
424.326
424.367
447.326
501.372
519.041
486.956
393.777
351.678
361.433
399.578
465.405
548.058
639.529
745.679
863.354
984.385
1086.19
1125.59
1121.83
1102.01
1055.19
1052.68
1082.22
1126.41
1101.61
971.634
595.201
438.007
442.961
482.522
550.576
629.403
718.227
827.566
965.967
1077.43
1082.41
1046.78
938.053
874.634
889.356
949.983
1012.22
997.157
914.729
811.105
779.679
783.02
794.347
814.804
845.911
882.591
960.448
294.073
294.426
295.537
298.028
300.964
301.668
299.965
298.706
298.27
296.939
295.74
295.166
294.976
295.114
295.533
296.258
297.554
300.28
305.98
314.028
313.855
308.474
304.595
302.5
302.979
306.126
312.981
329.723
373.684
481.468
701.568
1021.28
1090.7
973.145
721.283
407.328
330.278
335.701
366.447
431.865
530.131
652.503
790.512
930.19
981.956
953.602
821.674
641.563
571.34
567.643
589.938
604.362
571.87
454.644
382.596
390.607
433.596
514.968
622.487
745.401
883.538
1022.4
1118.69
1142.63
1139.29
1119.6
1074.37
997.765
954.349
964.414
1031.38
1059.95
987.696
692.918
483.313
482.317
524.754
606.133
706.621
823.969
972.112
1095.94
1100.62
1054.02
936.036
828.794
804.409
812.214
848.11
937.349
985.076
971.811
939.211
901.968
891.697
893.553
902.126
922.085
950.13
1014.06
298.038
307.969
334.868
382.891
456.862
520.017
505.936
475.345
482.322
462.911
396.182
355.295
336.881
332.62
338.876
350.788
367.91
392.723
437.371
539.468
625.724
569.403
482.585
411.614
353.624
344.693
356.296
390.53
466.11
633.13
920.435
1264.94
1478.29
1439.62
1135.07
659.077
376.746
368.273
401.994
489.603
623.753
781.117
938.257
1065.58
1101.71
1088.98
1013.86
901.234
838.548
790.844
763.704
746.219
684.922
520.521
418.659
424.987
472.135
569.12
704.887
860.614
1022.24
1134.29
1162.09
1161.99
1167.2
1161.18
1127.75
1051.58
935.283
916.441
954.142
1006.46
955.654
716.76
519.606
520.156
571.829
670.77
796.028
950.42
1105.98
1129.76
1084.91
952.584
840.638
793.134
786.167
790.161
807.525
868.49
955.045
978.187
973.033
960.905
946.633
943.807
946.889
958.614
978.436
1023.89
1429.02
816.519
867.142
1144.95
1613.97
1695.64
1507
1428.93
1532.68
1540.72
1338.71
921.139
567.426
508.98
539.299
600.861
661.174
709.636
779.278
982.388
1299.13
1305.73
1108.13
799.533
506.445
432.557
447.246
501.122
626.52
865.713
1189
1556.81
1617.2
1600.42
1506.73
994.008
474.865
422.845
460.801
573.549
746.655
926.944
1066.82
1129.83
1141.94
1133.04
1098.18
1085.16
1103.38
1082.11
1036.85
976.275
852.925
602.328
460.797
465.972
519.393
636.352
802.669
981.796
1129.31
1182.16
1205.45
1223.44
1288.61
1332.62
1324.43
1207.86
989.095
901.841
917.197
954.754
911.383
700.079
546.655
556.761
625.786
749.03
909.086
1091.54
1172.08
1142.95
1014.59
875.822
817.009
802.936
792.596
787.554
796.205
830.523
917.333
971.352
976.527
973.29
966.175
962.721
963.146
967.018
976.539
1006.22
2030.75
1822.12
1795.58
1959.79
2008.71
2030.58
2003.77
1998.37
2009.43
1997.37
1734.92
1155.41
837.519
823.62
913.229
1054.03
1104.79
1132.17
1238.04
1562.95
1708.13
1698.38
1623.99
1380.12
904.737
601.202
601.477
678.588
862.484
1160.16
1574.7
1660.44
1446.42
1405.14
1395.23
1110.22
573.569
496.269
546.658
695.014
895.351
1057.2
1121.64
1144.61
1175.76
1202.79
1202.84
1281.47
1371.11
1375.73
1335.53
1258.29
1066.91
713.596
513.072
516.424
577.507
717.121
907.108
1079.44
1194.18
1252.63
1284.55
1389.16
1516.45
1528.23
1455.16
1255.54
993.402
885.083
890.245
908.183
861.868
665.737
570.505
595.523
689.977
843.989
1040.66
1206.88
1216.65
1131.34
954.896
859.704
853.839
849.32
831.195
801.304
800.31
818.499
884.381
954.624
974.327
978.102
978.475
976.692
973.417
973.261
976.932
993.062
2111.55
2091.18
2080.3
2107.76
2112.42
2110.29
2103.65
2105.76
2115.75
2084.97
1973.32
1656.28
1419.08
1404.37
1536.75
1643.06
1647.12
1662.06
1789.42
1888.85
1810.23
1561.83
1302.51
1165.07
900.934
758.087
787.31
909.171
1154.24
1628.03
1751.95
1550.87
1124.69
1139.27
1183.72
1020.68
629.821
582.074
657.48
846.177
1037.63
1127.81
1187.06
1203.45
1195.81
1409.63
1481.7
1547.57
1498.88
1473.09
1470.6
1434.89
1291.03
861.13
581.202
579.416
648.251
806.069
1007.08
1174.57
1294.8
1363.65
1476.87
1632.97
1649.35
1565.07
1372.71
1145.17
942.769
857.606
857.816
859.928
803.466
630.364
595.39
641.077
766.574
955.437
1176.56
1289.37
1261.86
1114.9
966.263
928.226
914.019
895.435
863.265
819.534
806.767
818.147
862.152
931.16
970.008
995.241
1008.52
1008.17
1002.74
995.136
994.218
1012.43
2103.35
2108.58
2110.19
2111.24
2113.32
2115.22
2116.03
2117.19
2121.55
2120.1
2066.29
2009.69
1975.56
1965.73
1988.67
1999.39
1997.14
2002.07
2028.1
2016.34
1829.82
1454.71
1225.93
1071.43
981.566
944.469
995.516
1218.42
1657.96
1929.53
1841.33
1343.55
973.918
963.87
986.754
873.734
666.52
674.324
794.989
998.868
1146.18
1176.8
1279.48
1442.78
1675.53
1725.7
1671.94
1397.26
1180.13
1201.05
1309.98
1386.69
1322.7
986.161
659.461
651.524
730.997
905.774
1117.54
1289.29
1411.04
1569.94
1726.61
1744.89
1663.63
1396
1152.7
990.573
887.293
835.472
824.133
810.69
729.398
614.327
620.346
699.151
858.227
1080.51
1301.75
1355.1
1305.48
1154.61
1063.25
1028.5
992.121
942.93
890.625
838.214
815.769
822.75
852.53
911.489
970.783
1029.41
1069.34
1072.2
1063.57
1047.57
1040.3
1066.37
2102.62
2102.98
2103.28
2103.64
2103.87
2103.62
2103.04
2102.77
2104.54
2110.51
2109.35
2090.71
2063.13
2062.51
2078.28
2080.76
2076.38
2080.8
2093.61
2078.34
1991.11
1709.61
1379.75
1193.75
1139.25
1194.98
1395.34
1736.12
1997.73
2049.63
1873.6
1255.72
876.653
808.238
787.394
733.065
717.575
791.674
975.379
1158.21
1385.76
1594.31
1793.83
1922.98
1948.13
1821.76
1373.35
1011.86
923.585
948.703
1078.71
1282.84
1267.46
1001.21
723.219
725.528
824.107
1021.93
1251.4
1409.99
1585.92
1800.33
1843.31
1791.37
1543.16
1205.01
1007.79
912.116
857.888
821.759
795.979
754.646
656.68
618.787
655.494
770.818
963.535
1213.27
1402.18
1421.02
1357.52
1249.05
1197.72
1159.24
1088.64
993.255
916.162
858.794
829.466
831.788
857.245
913.472
990.81
1087.88
1161.81
1171.99
1161.23
1138.86
1127.32
1168.85
2102.61
2102.5
2102.27
2101.71
2100.55
2098.41
2094.2
2088.36
2085.09
2085.79
2090.65
2094.46
2096.18
2096.92
2094.53
2086.34
2077.39
2077.38
2076.31
2077.66
2056.82
1996.04
1877.35
1712.78
1632.25
1722.62
1936.41
1982.92
2024.31
2071.91
1934.59
1220.92
849.799
760.956
750.396
754.063
815.76
973.145
1150.78
1472.38
1808.63
1985.94
2031.46
2065.55
2039.75
1709.6
1112.69
868.416
831.188
858.259
959.85
1170.65
1188
959.035
772.262
798.75
930.962
1157.4
1378.65
1556.95
1800
1929.38
1908.33
1776.63
1398.51
1079.62
938.992
879.203
841.999
808.908
766.788
693.407
630.041
638.157
707.854
858.694
1082.85
1341.25
1482.83
1481.2
1418.58
1359.3
1338.2
1300.72
1199.92
1053.25
944.599
882.209
849.746
848.538
869.824
929.11
1035.51
1178.08
1283.69
1303.43
1295.21
1275.48
1264.93
1315.45
2102.46
2101.8
2100.53
2097.98
2093.01
2084.97
2072.75
2058.9
2051.68
2051.81
2054.03
2055.17
2052.3
2044.04
2028.32
2004.95
1983.19
1978.4
1967.36
1973.4
1990.84
1972.54
1948.16
1958.29
1960.84
1940.14
1871.77
1855.22
1905.08
2020.14
2009.29
1393.81
990.079
836.658
822.132
856.762
995.047
1155.03
1484.36
1873.14
2000.4
2030.37
2075
2116.19
2048
1565.82
1008.55
801.743
796.65
825.059
921.884
1097.07
1089.79
897.155
818.764
882.109
1057.88
1299.52
1519.31
1760.42
1964.17
2008.27
1947.94
1709.73
1286.3
1008.62
911.684
865.777
830.879
791.828
731.277
656.807
638.411
672.28
779.236
963.998
1216.13
1457.86
1539.48
1525.86
1481.42
1467.28
1463.88
1429.76
1317.34
1134.5
984.148
910.286
877.017
873.451
894.571
966.025
1113.07
1295.16
1415.08
1450.27
1448.59
1436.58
1428.56
1475.69
2101.58
2098.3
2091.93
2081.3
2063.09
2032.7
1995.28
1971.12
1968.27
1973.04
1978.29
1977.59
1967.95
1947.21
1915.88
1879.34
1851.93
1838.59
1806.15
1781.47
1766.82
1695.62
1625.15
1618.67
1623.17
1589.51
1565.92
1598.24
1689.29
1882.14
2036.64
1678.85
1153.54
1010.18
997.519
1048.33
1210.89
1496.38
1894.55
1980.79
1955.93
1978.64
2019.96
2101.42
2041.14
1500.01
920.282
774.189
782.645
823.734
929.272
1022.54
978.58
854.19
863.722
987.091
1205.16
1432.03
1716.13
1945.14
2059.11
2061.2
1961.74
1633.48
1210.41
973.598
899.267
858.946
821.638
772.754
705.082
659.776
665.707
729.047
870.569
1087.49
1350.2
1547.72
1585.11
1561.47
1548.22
1562.15
1567.2
1531.99
1429.9
1242.56
1045.74
947.174
911.337
907.501
934.319
1032.23
1226.62
1419.44
1576.31
1630.61
1629.87
1609.73
1589.29
1575.81
2093.05
2073.17
2043.18
1996.22
1923.87
1844.18
1782.48
1775.32
1786.89
1807.31
1817.84
1815.07
1796.58
1763.11
1724.16
1693.97
1678.11
1660.13
1608.33
1537.02
1445.68
1303.09
1198.48
1179.93
1198.5
1222.18
1263.67
1335.16
1444.17
1653.64
1967.01
1961.51
1545.22
1307.81
1261.71
1350.87
1605.97
1928.03
1945.89
1839.56
1818.86
1846.1
1934.53
2076.98
2046.93
1481.58
898.03
759.653
773.278
829.823
904.754
915.116
869.61
858.525
927.35
1119.13
1345.31
1605.16
1907.51
2058.34
2109.62
2094.54
1950.62
1590.5
1171.58
959.71
893.691
854.793
814.113
760.466
705.082
687.588
713.521
808.111
982.92
1229.15
1476.57
1619.45
1623.71
1614.19
1625.65
1663.75
1670.82
1633.85
1528.48
1359.39
1140.99
1004.68
958.231
955.456
998.127
1135.78
1352.11
1576.36
1748.81
1776.38
1758.36
1713.37
1668.76
1606.51
1992.59
1867.73
1759.57
1654.87
1527.87
1421.76
1411.41
1437.11
1484.56
1520.94
1529.31
1521.24
1494.2
1460.76
1442.06
1438.24
1430.88
1401.98
1318.09
1211.73
1088.32
967.501
915.114
923.375
949.757
994.04
1048.65
1116.3
1202.42
1368.6
1716.31
1961.12
1961.29
1806.81
1730.87
1839.25
1974.6
1876.47
1697.03
1644.26
1659.49
1719.06
1843.01
2038.7
2064.24
1600.61
956.102
755.268
757.477
795.128
823.002
825.924
838.331
885.871
1032.22
1264.89
1489.07
1804.87
2037.35
2115.84
2133.75
2112.39
1931.73
1577.24
1162.34
957.169
892.187
853.01
811.797
764.248
731.836
736.39
783.539
910.669
1117.07
1369.58
1593.05
1666.43
1665.93
1673.52
1720.97
1772.82
1781.96
1746.82
1642.7
1471.25
1268.44
1098.93
1032.7
1031.03
1098.23
1267.26
1494.99
1765.39
1867.94
1861.29
1810.15
1731.98
1669.85
1635.86
564.183
767.905
844.676
836.233
833.919
861.514
923.577
998.77
1050.49
1074.15
1073.6
1064.94
1065.45
1074
1094.06
1102.62
1086.56
1025.62
916.218
832.086
771.298
737.891
738.723
755.255
789.099
831.078
875.716
928.344
983.804
1092.82
1337.67
1633.3
1822.32
1896.13
1918.09
1850.73
1673.76
1503.34
1447.76
1458.02
1498.61
1583.68
1741.24
1981.46
2079.46
1747.94
1054.62
767.461
747.536
762.089
787.623
815.873
860.395
971.487
1183.62
1408.72
1712.31
1989.47
2088.1
2117.76
2132.79
2117.67
1924.12
1595.86
1233.07
992.32
907.831
864.915
828.807
797.331
787.53
805.728
882.485
1043.22
1271.42
1510.02
1685.59
1712.02
1721.75
1760.66
1837.99
1889.32
1901.96
1875.15
1783.93
1609.41
1400.73
1239.2
1153.99
1152.72
1239.35
1409.09
1717.01
1914.4
1941.01
1898.15
1813.4
1730
1695.83
1705.94
308.745
341.101
373.1
403.338
436.488
470.158
506.717
535.322
555.156
573.987
593.357
618.965
644.058
664.238
669.057
657.253
625.641
593.121
569.118
567.586
570.599
578.348
593.101
616.435
648.746
684.432
721.141
758.554
785.66
841.854
969.806
1110.18
1210.23
1261.25
1305.54
1263.5
1225.47
1226.15
1243.42
1274.45
1329.95
1439.76
1627.3
1884.51
2065.63
1919.94
1168.6
846.682
777.967
785.307
811.952
859.293
959.271
1132.1
1340.12
1656.88
1948.4
2055.02
2069.31
2081.28
2114.99
2124.11
1968.12
1673.23
1343.05
1079.48
959.102
907.473
877.127
861.806
866.656
910.413
1021.41
1211.86
1429.83
1665.43
1754.5
1771.68
1806.62
1881.64
1962.3
2005.16
2019.43
2002.67
1936.07
1795.36
1571.91
1389.34
1310.47
1309
1395.48
1656.64
1921.46
2005.17
1988.03
1901.54
1828.1
1782.21
1786.27
1846.47
294.832
297.904
302.498
308.851
316.266
323.677
331.179
338.553
346.649
356.373
366.916
377.358
384.327
389.072
390.933
391.058
393.011
400.547
411.056
424.775
437.358
449.743
465.651
488.948
519.31
551.978
581.986
607.173
624.675
656.818
718.264
780.125
824.016
862.186
922.863
966.268
997.992
1026.4
1057.26
1101.74
1173.25
1297.28
1478.61
1719.89
1964.09
2031.8
1485.77
1025.8
874.542
865.09
903.074
994.739
1143.29
1307.17
1614.04
1938.73
2036.3
2006.75
1986.82
2017.53
2092.73
2129.9
2031.94
1808.95
1477.41
1234.13
1079.82
1003.53
971.906
967.833
992.44
1066.98
1205.75
1388.26
1626
1790.41
1829.06
1857.18
1924.13
2009.52
2061.52
2083.44
2090.17
2083.49
2053.58
1975.28
1816.04
1625.92
1510.41
1520.84
1682.42
1914.55
2045.96
2057.8
2016.15
1935.1
1915.78
1907.62
1930.77
1996.47
294.047
294.264
294.682
295.401
296.337
297.383
298.673
300.265
302.285
304.684
307.38
310.229
312.742
315.052
317.256
319.653
323.313
328.715
335.244
343.262
351.398
360.671
373.9
394.804
422.36
452.525
481.353
509.177
537.694
569.82
609.337
652.158
692.575
734.947
788.386
819.315
841.949
869.838
909.741
963.08
1040.78
1157.48
1301.34
1496.44
1740.67
2013.52
1862.41
1295.3
1083.36
1059.22
1106.01
1199.81
1365.03
1635.17
1947.04
2007.37
1914.35
1865.59
1877.42
1947
2043.22
2108.56
2088.98
1977.63
1716.56
1409.21
1266.83
1182.64
1143.14
1144.22
1183.74
1268.32
1399.52
1616.14
1816.88
1891.08
1922.05
1974.42
2044.03
2086.47
2098.93
2088.94
2079.27
2085.22
2094
2074.35
2016.12
1906.66
1825.37
1843.34
1965.01
2064.85
2103.72
2092.5
2058.96
2029.75
2033.73
2035.49
2053.04
2080.91
294.003
294.017
294.05
294.116
294.214
294.345
294.539
294.824
295.23
295.724
296.308
296.973
297.674
298.476
299.411
300.496
301.991
303.996
306.569
310.001
314.199
320.74
332.259
349.887
375.524
406.845
441.931
476.737
511.01
545.962
583.574
622.187
656.749
686.165
713.677
726.261
742.396
772.173
817.097
872.886
944.801
1037.24
1138.62
1276.38
1468.66
1808.1
2008.38
1787.07
1444.66
1368.14
1407.87
1536.48
1787.85
1992.38
1956.67
1774.27
1703.91
1709.63
1755.78
1848.25
1928.32
2005.65
2067.33
2063.2
1963.65
1737.08
1540.83
1398.01
1355.92
1358.41
1397.32
1499.09
1680.9
1860.14
1959.73
1997.91
2033.83
2070.07
2085.39
2062.55
2014.62
1966.45
1945.79
1966.04
2014.42
2064.44
2080.77
2058.61
2042.84
2049.21
2089.07
2123.72
2127.86
2116.52
2103.05
2093.12
2090.81
2089.74
2077.07
2051.93
294
294.001
294.003
294.008
294.016
294.029
294.052
294.09
294.15
294.229
294.327
294.446
294.591
294.782
295.037
295.382
295.899
296.642
297.706
299.391
302.391
308.018
319.76
339.11
366.708
401.903
442.945
485.7
526.626
563.602
596.088
626.353
648.661
661.286
670.231
678.1
697.097
732.057
779.532
835.029
896.179
961.775
1029.68
1119.18
1237.91
1457.28
1757.39
1972
1971.19
1911.44
1919.38
1987.67
1947.45
1802.11
1598.75
1507.81
1506.49
1539.37
1608.31
1678.05
1708.64
1762.27
1862.3
1979.21
2050.62
2011.1
1896.13
1764.58
1701.9
1684.48
1733
1830.57
1946.02
2027.48
2064.35
2078.44
2078.1
2042.93
1964.69
1872.98
1789.6
1743.56
1739.28
1776.51
1842.4
1925.21
2003.29
2054.74
2074.81
2090.16
2101.11
2105.75
2095.34
2078.48
2050.4
2034.7
2001.49
1991.36
1917.5
1849.27
294
294
294
294.001
294.001
294.002
294.005
294.009
294.017
294.027
294.04
294.059
294.087
294.132
294.195
294.293
294.456
294.73
295.25
296.256
299.253
306.824
322.845
350.372
390.455
439.95
491.627
535.51
570.042
597.651
617.085
633.633
638.7
638.893
641.779
654.319
683.511
724.676
773.879
828.799
883.483
932.519
979.304
1031.26
1088.9
1176.97
1311.62
1539.38
1731.82
1777.63
1778.48
1658.62
1440.39
1352.91
1302.37
1284.26
1295.09
1339.2
1391.7
1395.75
1380.43
1403.99
1484.2
1626.96
1845.5
1979.25
2033.75
2026.94
2007.27
1995.53
2014.35
2040.92
2059.98
2069.08
2052.01
2002.87
1907.83
1784.52
1664.97
1577.88
1528.34
1523.27
1547.43
1605.02
1675.03
1757.75
1842.55
1918.63
1968.2
1994.18
1989.12
1965.5
1904.82
1856.33
1794.17
1765.21
1696.93
1678.24
1569.69
1534.59
294
294
294
294
294
294
294
294.001
294.001
294.002
294.004
294.007
294.011
294.021
294.038
294.067
294.128
294.241
294.574
295.66
299.047
308.576
329.865
367.59
422.517
485.241
539.923
576.938
601.15
615.801
625.113
623.107
614.662
611.445
619.105
644.958
686.17
738.188
796.314
849.343
890.842
929.393
965.936
993.237
1012.62
1034.33
1067.5
1124.96
1179.74
1173.45
1171.26
1142.04
1089.76
1087.13
1078.13
1063.91
1074.02
1105.85
1096.79
1051.15
1016.08
1018.97
1061.26
1152.74
1331.01
1510.36
1696.44
1851.29
1916.7
1953.14
1942.84
1921.3
1883.81
1814.2
1718.46
1613.21
1501.61
1408.17
1338.47
1312.6
1319.05
1353.3
1399.6
1456.37
1515.82
1584.76
1644.28
1696.35
1723.67
1714.08
1649.2
1577.02
1478.91
1426.34
1357
1319.96
1241.36
1233.95
1172.05
1203.85
294
294
294
294
294
294
294
294
294
294
294
294.001
294.002
294.004
294.01
294.021
294.057
294.175
294.56
295.784
299.59
310.415
335.117
380.597
446.799
516.427
567.07
596.21
613.531
616.952
610.752
593.307
579.946
582.331
603.233
647.088
710.421
782.954
849.759
894.084
918.592
941.868
963.424
972.412
962.856
950.577
943.492
944.169
946.441
922.693
918.682
915.976
890.86
891.375
882.974
865.847
866.556
860.09
818.726
755.94
723.942
716.774
734.493
776.063
863.612
950.708
1054.63
1169.74
1247.21
1322.57
1336.31
1339.16
1306.95
1259.95
1215.57
1177.77
1139.62
1117.03
1114.4
1138.74
1181.96
1230.64
1263.05
1287.08
1295.17
1303.65
1288.64
1265.52
1220.05
1150.3
1065.25
1015.93
957.136
921.577
864.472
839.709
809.677
825.313
836.718
942.185
294
294
294
294
294
294
294
294
294
294
294
294
294
294.001
294.003
294.012
294.041
294.138
294.463
295.517
298.83
308.93
334.06
382.927
454.909
527.264
574.91
601.152
609.48
603.528
581.119
553.766
548.408
559.356
597.17
665.93
753.059
839.534
902.078
928.84
938.53
949.065
952.237
935.606
892.918
855.998
829.228
813.47
802.465
778.97
770.906
765.722
744.411
742.819
735.606
722.023
712.692
692.049
649.325
600.114
571.094
566.889
581.826
616.094
661.358
705.488
750.398
794.314
834.06
875.189
897.44
912.502
914.688
914.118
914.796
918.524
924.928
943.611
973.716
1020.89
1071.7
1100.15
1071.34
1015.26
938.803
859.806
759.535
686.932
641.774
607.391
580.804
569.149
549.787
535.825
518.337
518.438
526.945
566.756
620.014
756.432
294
294
294
294
294
294
294
294
294
294
294
294
294
294.001
294.003
294.011
294.037
294.127
294.428
295.405
298.501
308.088
332.904
382.143
454.644
525.077
570.757
594.653
594.281
578.412
544.797
520.763
521.827
544.305
604.638
699.667
807.755
897.354
941.797
946.268
946.139
943.477
919.881
858.969
789.588
738.283
704.456
686.066
678.298
660.337
651.287
645.944
631.709
631.123
629.592
627.3
625.05
614.617
587.01
548.626
518.019
514.396
530.056
569.825
623.449
668.413
700.03
722.877
736.782
746.273
747.672
750.621
754.336
762.722
775.482
791.208
810.286
838.323
873.886
926.053
948.878
906.283
778.583
639.901
535.154
467.141
418.501
394.622
386.551
381.503
379.999
380.863
380.904
381.933
384.102
392.455
410.389
447.181
494.554
608.131
294
294
294
294
294
294
294
294
294
294
294
294
294
294.001
294.002
294.007
294.026
294.089
294.305
295.025
297.363
304.741
325.963
372.026
442.985
511.492
557.032
575.018
570.803
548.185
510.616
492.693
498.796
536.197
621.883
744.178
866.695
944.591
959.751
951.163
939.841
913.016
842.164
738.74
651.164
596.428
563.73
548.169
546.866
537.94
533.131
531.567
524.424
525.752
529.125
537.653
551.924
562.999
558.093
536.164
499.17
493.78
510.999
562.5
628.568
674.191
693.057
697.838
694.325
687.671
684.243
684.401
690.903
708.5
732.327
749.584
762.884
779.877
808.581
831.092
781.134
622.795
463.686
393.724
357.38
337.586
325.742
321.589
321.633
322.156
323.858
327.374
331.817
336.817
342.586
351.619
366.215
390.975
424.167
505.556
294
294
294
294
294
294
294
294
294
294
294
294
294
294
294.001
294.005
294.018
294.065
294.222
294.745
296.454
301.87
318.427
357.45
421.722
487.648
533.662
546.918
541.646
516.678
476.902
464.356
477.488
533.255
649.546
797.614
921.093
969.575
962.027
941.473
907.943
833.064
703.903
578.993
496.71
454.272
431.086
419.337
418.672
416.567
416.432
418.191
417.119
419.29
423.136
433.148
452.427
479.124
496.949
493.059
472.369
467.781
487.444
550.19
633.629
679.257
686.895
680.57
666.764
660.458
663.143
674.163
695.922
726.181
753.522
761.753
757.366
754.713
750.626
691.589
521.508
395.782
344.187
325.044
315.125
309.265
305.441
304.521
304.926
305.95
308.226
312.245
317.183
322.15
327.356
334.81
346.286
363.461
383.616
427.928
294
294
294
294
294
294
294
294
294
294
294
294
294
294
294.001
294.003
294.01
294.034
294.119
294.406
295.359
298.45
308.193
335.13
386.819
451.014
501.141
514.048
509.101
483.502
441.978
434.551
457.123
536.632
687.153
851.979
956.958
971.842
950.803
904.902
814.419
664.646
518.632
436.105
399.534
377.874
362.799
352.125
345.889
341.821
340.368
341.3
342.422
344.406
346.977
352.97
365.555
388.196
415.897
427.028
426.369
429.643
453.596
523.126
622.645
675.999
679.575
669.399
656.362
658.069
667.79
696.29
750.632
804.5
820.387
806.1
757.09
713.218
610.709
455.578
360.696
335.098
324.979
317.905
311.306
305.07
300.682
299.924
300.208
301.153
303.157
306.316
309.993
313.726
318.055
324.224
333.764
348.411
365.861
400.267
294
294
294
294
294
294
294
294
294
294
294
294
294
294
294
294.001
294.005
294.017
294.059
294.2
294.67
296.201
301.064
316.054
350.386
403.785
457.064
475.699
472.299
449.137
408.337
404.943
437.227
544.168
726.857
896.138
967.854
959.895
907.756
792.151
614.624
472.765
412.533
387.844
371.785
355.395
341.61
331.119
323.161
316.897
312.323
310.077
309.994
310.564
311.697
314.306
320.314
333.127
353.161
370.908
380.65
390.597
417.825
486.063
592.838
663.162
669.985
659.34
651.708
660.015
687.822
754.697
851.014
900.278
889.723
810.004
707.145
567.353
404.249
349.663
336.988
330.971
326.154
320.336
313.333
305.969
300.189
298.347
298.372
298.759
299.888
301.968
305.018
309.26
314.435
320.259
327.42
337.991
351.679
383.328
294
294
294
294
294
294
294
294
294
294
294
294
294
294
294
294
294.002
294.006
294.02
294.069
294.236
294.8
296.661
302.587
319.687
354.298
401.069
426.248
424.65
405.516
373.982
376.467
419.942
550.253
752.736
913.428
959.174
921.317
788.809
595.723
468.817
429.238
412.425
395.894
372.878
348.155
330.988
320.998
314.38
308.751
303.838
300.546
299.395
299.426
299.698
300.541
302.809
308.596
319.231
332.46
344.291
357.232
383.681
443.817
545.005
633.233
647.007
639.294
639.354
658.829
720.036
830.549
942.16
956.636
897.178
742.539
548.716
394.628
346.182
335.524
329.421
324.929
320.785
316.44
311.507
305.837
300.299
297.429
297.086
297.247
298.038
299.96
303.433
308.759
315.649
322.01
327.762
335.227
345.83
378.243
294
294
294
294
294
294
294
294
294
294
294
294
294
294
294
294
294
294.002
294.006
294.02
294.07
294.241
294.821
296.733
302.93
319.305
348.254
367.461
366.362
352.993
341.184
354.63
408.154
557.114
761.033
903.267
927.22
828.061
618.151
492.643
460.057
449.063
441.885
416.492
376.397
339.449
317.434
309.215
305.819
303.246
300.364
297.586
296.062
295.809
295.855
296.116
296.988
299.442
304.228
311.257
319.887
331.441
353.69
401.299
484.549
573.124
605.41
606.506
616.356
658.149
759.196
903.676
985.922
961.251
848.573
589.839
401.252
345.258
324.178
315.018
310.319
308.127
306.994
306.126
304.856
302.842
299.649
296.851
296.251
296.392
297.211
299.345
303.462
310.246
319.745
329.535
335.677
340.741
349.393
378.746
294
294
294
294
294
294
294
294
294
294
294
294
294
294
294
294
294
294
294.001
294.005
294.019
294.067
294.232
294.783
296.569
301.264
310.81
318.464
318.242
315.744
318.218
340.135
414.281
580.83
763.388
865.929
838.084
667.641
518.343
487.356
482.662
488.866
478.904
446.587
392.209
338.508
310.264
301.55
299.272
298.249
297.274
296.045
294.978
294.624
294.619
294.7
295.052
296.101
298.188
301.56
306.629
314.626
330.292
363.511
424.681
502.324
550.886
568.565
594.789
667.24
807.031
956.64
981.274
927.194
704.03
440.422
352.971
322.219
309.06
304.657
302.352
300.733
300.049
300.049
299.874
299.247
297.72
296.01
295.592
295.739
296.592
298.909
303.379
310.582
320.821
333.664
344.698
351.396
358.706
386.616
294
294
294
294
294
294
294
294
294
294
294
294
294
294
294
294
294
294
294
294.001
294.005
294.017
294.06
294.202
294.63
295.576
297.026
298.338
299.366
300.958
307.684
331.57
408.927
572.891
724.861
762.811
707.942
563.273
505.971
501.118
512.748
512.557
501.796
471.848
411.965
342.84
307.399
298.43
296.399
295.775
295.362
294.9
294.448
294.228
294.212
294.241
294.387
294.838
295.84
297.776
301.197
306.906
317.752
341.198
388.456
456.732
508.75
536.21
577.447
674.794
839.065
960.612