/*--------------------------------*- C++ -*----------------------------------*\
| =========                 |                                                 |
| \\      /  F ield         | OpenFOAM: The Open Source CFD Toolbox           |
|  \\    /   O peration     | Version:  2.3.0                                 |
|   \\  /    A nd           | Web:      www.OpenFOAM.org                      |
|    \\/     M anipulation  |                                                 |
\*---------------------------------------------------------------------------*/
FoamFile
{
    version     2.0;
    format      ascii;
    class       volScalarField;
    location    "0.05";
    object      thermo:alpha;
}
// * * * * * * * * * * * * * * * * * * * * * * * * * * * * * * * * * * * * * //

dimensions      [1 -1 -1 0 0 0 0];

internalField   nonuniform List<scalar> 
5000
(
2.61542e-05
2.61542e-05
2.61542e-05
2.61542e-05
2.61542e-05
2.61542e-05
2.61542e-05
2.61542e-05
2.61542e-05
2.61542e-05
2.61542e-05
2.61542e-05
2.61542e-05
2.61542e-05
2.61542e-05
2.61542e-05
2.61542e-05
2.61542e-05
2.61542e-05
2.61542e-05
2.61542e-05
2.61542e-05
2.61542e-05
2.61542e-05
2.61542e-05
2.61542e-05
2.61542e-05
2.61542e-05
2.61542e-05
2.61542e-05
2.61542e-05
2.61542e-05
2.61542e-05
2.61542e-05
2.61542e-05
2.61542e-05
2.61542e-05
2.61542e-05
2.61542e-05
2.61542e-05
2.61542e-05
2.61542e-05
2.61542e-05
2.61542e-05
2.61542e-05
2.61542e-05
2.61542e-05
2.61542e-05
2.61542e-05
2.61543e-05
2.61544e-05
2.61546e-05
2.61551e-05
2.61563e-05
2.61595e-05
2.61683e-05
2.61881e-05
2.62266e-05
2.62902e-05
2.63889e-05
2.65372e-05
2.67468e-05
2.70137e-05
2.72972e-05
2.75637e-05
2.77526e-05
2.76629e-05
2.73494e-05
2.70232e-05
2.67567e-05
2.65479e-05
2.64094e-05
2.62985e-05
2.62292e-05
2.62256e-05
2.62349e-05
2.62532e-05
2.62824e-05
2.63264e-05
2.63932e-05
2.64866e-05
2.65946e-05
2.66938e-05
2.67943e-05
2.69163e-05
2.70584e-05
2.72304e-05
2.74562e-05
2.76545e-05
2.76108e-05
2.73421e-05
2.68945e-05
2.66456e-05
2.66232e-05
2.66381e-05
2.66756e-05
2.67298e-05
2.67963e-05
2.68716e-05
2.69526e-05
2.61542e-05
2.61542e-05
2.61542e-05
2.61542e-05
2.61542e-05
2.61542e-05
2.61542e-05
2.61542e-05
2.61542e-05
2.61542e-05
2.61542e-05
2.61542e-05
2.61542e-05
2.61542e-05
2.61542e-05
2.61542e-05
2.61542e-05
2.61542e-05
2.61542e-05
2.61542e-05
2.61542e-05
2.61542e-05
2.61542e-05
2.61542e-05
2.61542e-05
2.61542e-05
2.61542e-05
2.61542e-05
2.61542e-05
2.61542e-05
2.61542e-05
2.61542e-05
2.61542e-05
2.61542e-05
2.61542e-05
2.61543e-05
2.61546e-05
2.61551e-05
2.61559e-05
2.61566e-05
2.61564e-05
2.61557e-05
2.61551e-05
2.61548e-05
2.61547e-05
2.6155e-05
2.61556e-05
2.61565e-05
2.61569e-05
2.61566e-05
2.61566e-05
2.61576e-05
2.61608e-05
2.61676e-05
2.6185e-05
2.62358e-05
2.63479e-05
2.65478e-05
2.68527e-05
2.72944e-05
2.79665e-05
2.89425e-05
3.02419e-05
3.18179e-05
3.36504e-05
3.57348e-05
3.72049e-05
3.71945e-05
3.60582e-05
3.29632e-05
3.00866e-05
2.816e-05
2.68191e-05
2.64431e-05
2.64354e-05
2.64628e-05
2.65328e-05
2.66631e-05
2.68767e-05
2.72066e-05
2.76759e-05
2.81836e-05
2.85257e-05
2.86868e-05
2.88256e-05
2.9027e-05
2.92778e-05
2.9544e-05
2.95456e-05
2.93431e-05
2.87349e-05
2.78434e-05
2.76281e-05
2.76992e-05
2.79271e-05
2.82211e-05
2.8422e-05
2.85343e-05
2.86319e-05
2.88344e-05
2.61542e-05
2.61542e-05
2.61542e-05
2.61542e-05
2.61542e-05
2.61542e-05
2.61542e-05
2.61542e-05
2.61542e-05
2.61542e-05
2.61542e-05
2.61542e-05
2.61542e-05
2.61542e-05
2.61542e-05
2.61542e-05
2.61542e-05
2.61542e-05
2.61542e-05
2.61542e-05
2.61542e-05
2.61542e-05
2.61542e-05
2.61542e-05
2.61542e-05
2.61542e-05
2.61542e-05
2.61542e-05
2.61542e-05
2.61543e-05
2.61543e-05
2.61542e-05
2.61542e-05
2.61544e-05
2.6155e-05
2.61568e-05
2.61623e-05
2.61739e-05
2.6195e-05
2.62168e-05
2.6215e-05
2.61959e-05
2.61795e-05
2.61707e-05
2.61686e-05
2.61751e-05
2.61927e-05
2.62191e-05
2.62321e-05
2.62193e-05
2.62034e-05
2.61914e-05
2.61897e-05
2.62043e-05
2.62476e-05
2.63893e-05
2.67181e-05
2.73103e-05
2.8227e-05
2.94365e-05
3.09723e-05
3.27705e-05
3.47627e-05
3.68432e-05
3.8985e-05
4.12419e-05
4.37258e-05
4.64645e-05
4.74352e-05
4.64427e-05
4.13657e-05
3.27139e-05
2.79167e-05
2.70291e-05
2.70178e-05
2.7114e-05
2.73686e-05
2.78207e-05
2.85584e-05
2.97e-05
3.12938e-05
3.30449e-05
3.4303e-05
3.48432e-05
3.52739e-05
3.62904e-05
3.68524e-05
3.6465e-05
3.53425e-05
3.36194e-05
3.1217e-05
2.95596e-05
2.95087e-05
2.98805e-05
3.07561e-05
3.18011e-05
3.26083e-05
3.31401e-05
3.34352e-05
3.39555e-05
2.61542e-05
2.61542e-05
2.61542e-05
2.61542e-05
2.61542e-05
2.61542e-05
2.61542e-05
2.61542e-05
2.61542e-05
2.61542e-05
2.61542e-05
2.61542e-05
2.61542e-05
2.61542e-05
2.61542e-05
2.61542e-05
2.61542e-05
2.61542e-05
2.61542e-05
2.61542e-05
2.61542e-05
2.61542e-05
2.61542e-05
2.61542e-05
2.61542e-05
2.61542e-05
2.61543e-05
2.61546e-05
2.61556e-05
2.61574e-05
2.61577e-05
2.61562e-05
2.61555e-05
2.61558e-05
2.6158e-05
2.61652e-05
2.61933e-05
2.62903e-05
2.65975e-05
2.71899e-05
2.72199e-05
2.6917e-05
2.66253e-05
2.64518e-05
2.63417e-05
2.63219e-05
2.63899e-05
2.67681e-05
2.72809e-05
2.72114e-05
2.69668e-05
2.66949e-05
2.64559e-05
2.63508e-05
2.64248e-05
2.67816e-05
2.75791e-05
2.8831e-05
3.03995e-05
3.21782e-05
3.41102e-05
3.61275e-05
3.82186e-05
4.0376e-05
4.25916e-05
4.49151e-05
4.74043e-05
5.03475e-05
5.40088e-05
5.48868e-05
5.23813e-05
4.26388e-05
3.12433e-05
2.82785e-05
2.82506e-05
2.86517e-05
2.95035e-05
3.07081e-05
3.22109e-05
3.41118e-05
3.64411e-05
3.89898e-05
4.1286e-05
4.29776e-05
4.46219e-05
4.75843e-05
4.9665e-05
4.90094e-05
4.68162e-05
4.264e-05
3.65053e-05
3.23029e-05
3.19974e-05
3.24439e-05
3.36531e-05
3.52808e-05
3.68681e-05
3.82942e-05
3.93707e-05
4.0505e-05
2.61542e-05
2.61542e-05
2.61542e-05
2.61542e-05
2.61542e-05
2.61542e-05
2.61542e-05
2.61542e-05
2.61542e-05
2.61542e-05
2.61542e-05
2.61542e-05
2.61542e-05
2.61542e-05
2.61542e-05
2.61542e-05
2.61542e-05
2.61542e-05
2.61542e-05
2.61542e-05
2.61542e-05
2.61542e-05
2.61542e-05
2.61542e-05
2.61543e-05
2.61547e-05
2.61562e-05
2.61617e-05
2.6179e-05
2.62134e-05
2.62234e-05
2.61948e-05
2.61759e-05
2.61682e-05
2.61714e-05
2.61926e-05
2.62888e-05
2.66187e-05
2.76571e-05
2.99877e-05
3.21981e-05
3.19987e-05
3.04278e-05
2.83935e-05
2.72821e-05
2.68534e-05
2.69229e-05
2.75588e-05
2.92452e-05
3.03755e-05
3.01077e-05
2.89503e-05
2.73949e-05
2.67036e-05
2.67846e-05
2.73894e-05
2.87518e-05
3.06962e-05
3.29537e-05
3.52624e-05
3.75849e-05
3.99491e-05
4.24086e-05
4.50562e-05
4.79429e-05
5.10125e-05
5.40558e-05
5.69708e-05
6.02372e-05
6.22064e-05
6.09958e-05
5.36394e-05
3.80187e-05
3.01672e-05
2.98197e-05
3.0547e-05
3.21889e-05
3.43072e-05
3.65704e-05
3.90313e-05
4.18384e-05
4.50022e-05
4.83707e-05
5.14348e-05
5.43276e-05
5.82596e-05
6.1304e-05
6.10918e-05
5.93983e-05
5.46777e-05
4.5422e-05
3.69504e-05
3.56062e-05
3.60109e-05
3.73264e-05
3.92869e-05
4.13451e-05
4.33447e-05
4.51432e-05
4.76095e-05
2.61542e-05
2.61542e-05
2.61542e-05
2.61542e-05
2.61542e-05
2.61542e-05
2.61542e-05
2.61542e-05
2.61542e-05
2.61542e-05
2.61542e-05
2.61542e-05
2.61542e-05
2.61542e-05
2.61542e-05
2.61542e-05
2.61542e-05
2.61542e-05
2.61542e-05
2.61542e-05
2.61542e-05
2.61542e-05
2.61543e-05
2.61547e-05
2.61561e-05
2.61613e-05
2.61786e-05
2.62282e-05
2.64085e-05
2.69227e-05
2.71758e-05
2.67813e-05
2.64845e-05
2.633e-05
2.62638e-05
2.62817e-05
2.64423e-05
2.70226e-05
2.86948e-05
3.18707e-05
3.62784e-05
3.88847e-05
3.84739e-05
3.62042e-05
3.17324e-05
2.85958e-05
2.80186e-05
2.8414e-05
2.99968e-05
3.28843e-05
3.38818e-05
3.29996e-05
3.01363e-05
2.76108e-05
2.74934e-05
2.82972e-05
3.02373e-05
3.29672e-05
3.5947e-05
3.88531e-05
4.17977e-05
4.48738e-05
4.82336e-05
5.20554e-05
5.61124e-05
5.99466e-05
6.28718e-05
6.48915e-05
6.67029e-05
6.82945e-05
6.78098e-05
6.30739e-05
4.77408e-05
3.32196e-05
3.14164e-05
3.21343e-05
3.41448e-05
3.69044e-05
3.9862e-05
4.29811e-05
4.64904e-05
5.05814e-05
5.52029e-05
5.96781e-05
6.28829e-05
6.50631e-05
6.60479e-05
6.62492e-05
6.5561e-05
6.34306e-05
5.58427e-05
4.45629e-05
4.04585e-05
4.06089e-05
4.17023e-05
4.36398e-05
4.58511e-05
4.81287e-05
5.02507e-05
5.37135e-05
2.61542e-05
2.61542e-05
2.61542e-05
2.61544e-05
2.61544e-05
2.61544e-05
2.61543e-05
2.61542e-05
2.61542e-05
2.61542e-05
2.61542e-05
2.61542e-05
2.61542e-05
2.61542e-05
2.61542e-05
2.61543e-05
2.61544e-05
2.61547e-05
2.61555e-05
2.61561e-05
2.61558e-05
2.61558e-05
2.61568e-05
2.61608e-05
2.61734e-05
2.62015e-05
2.62661e-05
2.64509e-05
2.7207e-05
2.98591e-05
3.43563e-05
3.29308e-05
3.00558e-05
2.82766e-05
2.72329e-05
2.66815e-05
2.67458e-05
2.74628e-05
2.94381e-05
3.29221e-05
3.76123e-05
4.27482e-05
4.56574e-05
4.53626e-05
4.26823e-05
3.59908e-05
3.08203e-05
3.04257e-05
3.13346e-05
3.38898e-05
3.71204e-05
3.70902e-05
3.45345e-05
2.98342e-05
2.86916e-05
2.94741e-05
3.18178e-05
3.53001e-05
3.91446e-05
4.29672e-05
4.69481e-05
5.11897e-05
5.56982e-05
6.0618e-05
6.46307e-05
6.71482e-05
6.80002e-05
6.8158e-05
6.87974e-05
7.01996e-05
7.01135e-05
6.78003e-05
5.76649e-05
3.87687e-05
3.35387e-05
3.41784e-05
3.65352e-05
3.99661e-05
4.3573e-05
4.72662e-05
5.14742e-05
5.64041e-05
6.17794e-05
6.59017e-05
6.66688e-05
6.57867e-05
6.49174e-05
6.57334e-05
6.62695e-05
6.56935e-05
6.25158e-05
5.36727e-05
4.76753e-05
4.72643e-05
4.7868e-05
4.92408e-05
5.10011e-05
5.29794e-05
5.49269e-05
5.85575e-05
2.61543e-05
2.61548e-05
2.61575e-05
2.61638e-05
2.61695e-05
2.61683e-05
2.61633e-05
2.616e-05
2.61585e-05
2.61567e-05
2.61558e-05
2.61555e-05
2.61557e-05
2.61565e-05
2.6158e-05
2.61603e-05
2.6165e-05
2.61767e-05
2.62004e-05
2.62243e-05
2.62132e-05
2.61994e-05
2.61967e-05
2.62132e-05
2.6265e-05
2.6367e-05
2.65699e-05
2.70901e-05
2.88738e-05
3.38594e-05
4.39784e-05
5.18963e-05
4.9137e-05
4.08198e-05
3.26762e-05
2.84096e-05
2.75182e-05
2.81482e-05
3.01781e-05
3.38981e-05
3.88044e-05
4.44507e-05
5.04012e-05
5.42015e-05
5.3949e-05
5.02697e-05
4.08613e-05
3.52515e-05
3.52541e-05
3.67037e-05
3.99681e-05
4.0994e-05
3.91165e-05
3.32586e-05
3.03802e-05
3.10617e-05
3.3643e-05
3.7818e-05
4.2639e-05
4.75373e-05
5.27649e-05
5.81105e-05
6.32141e-05
6.72654e-05
6.87806e-05
6.86372e-05
6.78769e-05
6.60527e-05
6.5954e-05
6.7111e-05
6.8812e-05
6.78614e-05
6.26926e-05
4.52146e-05
3.61201e-05
3.64312e-05
3.8852e-05
4.27795e-05
4.70147e-05
5.14532e-05
5.65295e-05
6.24597e-05
6.69246e-05
6.71184e-05
6.57207e-05
6.13017e-05
5.86015e-05
5.92373e-05
6.17988e-05
6.43415e-05
6.37328e-05
6.03201e-05
5.57898e-05
5.4354e-05
5.45081e-05
5.5028e-05
5.59568e-05
5.73444e-05
5.89459e-05
6.22321e-05
2.61597e-05
2.61867e-05
2.62715e-05
2.64609e-05
2.66834e-05
2.67366e-05
2.66078e-05
2.65124e-05
2.64793e-05
2.63782e-05
2.62869e-05
2.62431e-05
2.62286e-05
2.62392e-05
2.62711e-05
2.63263e-05
2.64249e-05
2.66317e-05
2.70612e-05
2.76616e-05
2.76487e-05
2.72481e-05
2.69572e-05
2.67994e-05
2.68355e-05
2.70722e-05
2.75839e-05
2.88125e-05
3.19049e-05
3.87888e-05
5.06444e-05
6.47064e-05
6.74418e-05
6.27562e-05
5.16013e-05
3.41519e-05
2.88527e-05
2.92442e-05
3.14084e-05
3.57319e-05
4.16284e-05
4.82002e-05
5.48525e-05
6.09723e-05
6.31151e-05
6.1949e-05
5.62654e-05
4.76415e-05
4.39252e-05
4.37229e-05
4.49327e-05
4.57022e-05
4.39543e-05
3.71575e-05
3.25097e-05
3.30474e-05
3.58416e-05
4.07593e-05
4.66552e-05
5.27518e-05
5.89867e-05
6.47504e-05
6.85171e-05
6.94275e-05
6.9301e-05
6.85522e-05
6.68052e-05
6.37575e-05
6.19799e-05
6.23957e-05
6.51093e-05
6.62402e-05
6.33488e-05
5.02204e-05
3.88993e-05
3.88397e-05
4.13218e-05
4.5796e-05
5.08908e-05
5.63686e-05
6.27122e-05
6.76428e-05
6.78232e-05
6.60069e-05
6.12173e-05
5.65843e-05
5.54864e-05
5.58399e-05
5.74415e-05
6.12723e-05
6.32422e-05
6.26998e-05
6.13501e-05
5.97775e-05
5.93379e-05
5.94175e-05
5.97843e-05
6.06311e-05
6.18049e-05
6.44153e-05
2.64617e-05
2.72103e-05
2.91843e-05
3.25297e-05
3.72944e-05
4.105e-05
4.02348e-05
3.84207e-05
3.88399e-05
3.76655e-05
3.34182e-05
3.06339e-05
2.93289e-05
2.90221e-05
2.94719e-05
3.03176e-05
3.15091e-05
3.31885e-05
3.60799e-05
4.21569e-05
4.68231e-05
4.38193e-05
3.88555e-05
3.44314e-05
3.05169e-05
2.98866e-05
3.07039e-05
3.30422e-05
3.78609e-05
4.72074e-05
6.05622e-05
7.39403e-05
8.13319e-05
8.00296e-05
6.91435e-05
4.8533e-05
3.21134e-05
3.15342e-05
3.38022e-05
3.9274e-05
4.67211e-05
5.44205e-05
6.13103e-05
6.64611e-05
6.78655e-05
6.73734e-05
6.44077e-05
5.97462e-05
5.70181e-05
5.48678e-05
5.36123e-05
5.27906e-05
4.98258e-05
4.10791e-05
3.48875e-05
3.52938e-05
3.8227e-05
4.38039e-05
5.08064e-05
5.79907e-05
6.47441e-05
6.91114e-05
7.01604e-05
7.01566e-05
7.03522e-05
7.01268e-05
6.88634e-05
6.59107e-05
6.11858e-05
6.03926e-05
6.19713e-05
6.41094e-05
6.20339e-05
5.13824e-05
4.10266e-05
4.10582e-05
4.3952e-05
4.91215e-05
5.51049e-05
6.1817e-05
6.80298e-05
6.89396e-05
6.72156e-05
6.19067e-05
5.71112e-05
5.49725e-05
5.46529e-05
5.48363e-05
5.56277e-05
5.83345e-05
6.20087e-05
6.2961e-05
6.27499e-05
6.22509e-05
6.16595e-05
6.15418e-05
6.16702e-05
6.21563e-05
6.29712e-05
6.48097e-05
7.96375e-05
5.60327e-05
5.82745e-05
6.95078e-05
8.57024e-05
8.82801e-05
8.22342e-05
7.96309e-05
8.30765e-05
8.33405e-05
7.65354e-05
6.05929e-05
4.37109e-05
4.0412e-05
4.21473e-05
4.55162e-05
4.86388e-05
5.1038e-05
5.43355e-05
6.31324e-05
7.51478e-05
7.53829e-05
6.81118e-05
5.52643e-05
4.02644e-05
3.57757e-05
3.66986e-05
3.99533e-05
4.68649e-05
5.82134e-05
7.11644e-05
8.39247e-05
8.58915e-05
8.53513e-05
8.22779e-05
6.36059e-05
3.83918e-05
3.51566e-05
3.75365e-05
4.40459e-05
5.28111e-05
6.08358e-05
6.65098e-05
6.8942e-05
6.94016e-05
6.90644e-05
6.77297e-05
6.72257e-05
6.79308e-05
6.71075e-05
6.53277e-05
6.28832e-05
5.76533e-05
4.55943e-05
3.75362e-05
3.78526e-05
4.10143e-05
4.73738e-05
5.54075e-05
6.31084e-05
6.89223e-05
7.09097e-05
7.17714e-05
7.24327e-05
7.47883e-05
7.6344e-05
7.60544e-05
7.18604e-05
6.34058e-05
5.97721e-05
6.04246e-05
6.19967e-05
6.01782e-05
5.05716e-05
4.25605e-05
4.31232e-05
4.6827e-05
5.29232e-05
6.00807e-05
6.74729e-05
7.05344e-05
6.94396e-05
6.44366e-05
5.86531e-05
5.60561e-05
5.54195e-05
5.49479e-05
5.47167e-05
5.51129e-05
5.66615e-05
6.04303e-05
6.2681e-05
6.28931e-05
6.27605e-05
6.24682e-05
6.23259e-05
6.23434e-05
6.25029e-05
6.28936e-05
6.40996e-05
9.81763e-05
9.21608e-05
9.13522e-05
9.62134e-05
9.75718e-05
9.81702e-05
9.74386e-05
9.72903e-05
9.75936e-05
9.72616e-05
8.95053e-05
6.99081e-05
5.69732e-05
5.6353e-05
6.02574e-05
6.60052e-05
6.79822e-05
6.90287e-05
7.29561e-05
8.40722e-05
8.872e-05
8.84615e-05
8.61046e-05
7.79955e-05
5.98957e-05
4.55344e-05
4.5549e-05
4.95114e-05
5.80723e-05
7.00868e-05
8.44733e-05
8.72707e-05
8.02593e-05
7.88559e-05
7.85147e-05
6.81932e-05
4.4047e-05
3.96682e-05
4.25607e-05
5.03234e-05
5.94945e-05
6.61322e-05
6.863e-05
6.95026e-05
7.06718e-05
7.16744e-05
7.16776e-05
7.45329e-05
7.76835e-05
7.78428e-05
7.64448e-05
7.36977e-05
6.65141e-05
5.12294e-05
4.06496e-05
4.08433e-05
4.42613e-05
5.13998e-05
5.99965e-05
6.7003e-05
7.13557e-05
7.34925e-05
7.46435e-05
7.83056e-05
8.25998e-05
8.2992e-05
8.05493e-05
7.35965e-05
6.35807e-05
5.90534e-05
5.92756e-05
6.00423e-05
5.80456e-05
4.8869e-05
4.38797e-05
4.52319e-05
5.00756e-05
5.72595e-05
6.54783e-05
7.18242e-05
7.21826e-05
6.89997e-05
6.20025e-05
5.79509e-05
5.76937e-05
5.74948e-05
5.66915e-05
5.53453e-05
5.53e-05
5.61232e-05
5.90231e-05
6.19912e-05
6.2803e-05
6.29575e-05
6.29728e-05
6.28998e-05
6.27657e-05
6.27593e-05
6.29097e-05
6.35669e-05
0.00010036
9.98084e-05
9.95166e-05
0.000100252
0.000100376
0.000100318
0.000100141
0.000100197
0.000100461
9.96378e-05
9.65835e-05
8.70513e-05
7.93007e-05
7.88002e-05
8.32163e-05
8.66337e-05
8.67627e-05
8.72349e-05
9.11728e-05
9.41549e-05
9.18604e-05
8.4085e-05
7.52822e-05
7.02731e-05
5.97334e-05
5.33493e-05
5.47056e-05
6.00851e-05
6.98636e-05
8.61627e-05
9.00931e-05
8.37255e-05
6.87478e-05
6.93017e-05
7.09688e-05
6.46813e-05
4.70363e-05
4.45088e-05
4.84525e-05
5.7356e-05
6.53583e-05
6.88658e-05
7.10924e-05
7.16995e-05
7.14161e-05
7.89938e-05
8.14385e-05
8.36287e-05
8.20144e-05
8.1152e-05
8.10673e-05
7.98636e-05
7.48691e-05
5.80132e-05
4.44617e-05
4.43649e-05
4.79837e-05
5.55619e-05
6.41341e-05
7.06274e-05
7.50065e-05
7.7426e-05
8.12643e-05
8.63709e-05
8.69145e-05
8.42018e-05
7.77385e-05
6.95241e-05
6.14986e-05
5.7859e-05
5.78682e-05
5.79607e-05
5.54436e-05
4.70645e-05
4.52247e-05
4.76168e-05
5.3746e-05
6.20249e-05
7.07016e-05
7.48086e-05
7.38241e-05
6.83721e-05
6.24718e-05
6.08897e-05
6.029e-05
5.94982e-05
5.81067e-05
5.61697e-05
5.55934e-05
5.61073e-05
5.8058e-05
6.1013e-05
6.26258e-05
6.36553e-05
6.41922e-05
6.41782e-05
6.39587e-05
6.3651e-05
6.36138e-05
6.43497e-05
0.000100144
0.000100282
0.000100324
0.000100352
0.000100407
0.000100457
0.000100478
0.000100508
0.000100622
0.000100578
9.9135e-05
9.76008e-05
9.66507e-05
9.63703e-05
9.7019e-05
9.73171e-05
9.7254e-05
9.73913e-05
9.81083e-05
9.77866e-05
9.24157e-05
8.05299e-05
7.25239e-05
6.66904e-05
6.30992e-05
6.15701e-05
6.36681e-05
7.22433e-05
8.71046e-05
9.53318e-05
9.27818e-05
7.67252e-05
6.27863e-05
6.23734e-05
6.33108e-05
5.85624e-05
4.89083e-05
4.92991e-05
5.50574e-05
6.38027e-05
6.95639e-05
7.07116e-05
7.44526e-05
8.01039e-05
8.76645e-05
8.92686e-05
8.76301e-05
7.85855e-05
7.08363e-05
7.16109e-05
7.55448e-05
7.8219e-05
7.59897e-05
6.32864e-05
4.85527e-05
4.81504e-05
5.20666e-05
5.99397e-05
6.84735e-05
7.481e-05
7.90571e-05
8.4319e-05
8.92973e-05
8.98929e-05
8.73675e-05
7.85423e-05
6.98083e-05
6.34659e-05
5.91486e-05
5.68819e-05
5.6376e-05
5.5771e-05
5.19901e-05
4.62281e-05
4.65435e-05
5.05262e-05
5.78862e-05
6.70444e-05
7.52502e-05
7.71252e-05
7.5381e-05
6.98796e-05
6.63702e-05
6.49944e-05
6.35287e-05
6.15053e-05
5.92919e-05
5.70037e-05
5.60003e-05
5.6314e-05
5.76361e-05
6.01827e-05
6.26576e-05
6.50305e-05
6.66086e-05
6.67204e-05
6.63823e-05
6.57523e-05
6.54641e-05
6.64923e-05
0.000100124
0.000100134
0.000100142
0.000100151
0.000100157
0.000100151
0.000100135
0.000100128
0.000100175
0.000100332
0.000100298
9.97968e-05
9.9054e-05
9.90357e-05
9.94595e-05
9.95254e-05
9.94075e-05
9.95262e-05
9.98691e-05
9.94607e-05
9.70836e-05
8.87227e-05
7.79605e-05
7.13384e-05
6.92996e-05
7.13826e-05
7.84919e-05
8.95388e-05
9.727e-05
9.86908e-05
9.37088e-05
7.36086e-05
5.86891e-05
5.566e-05
5.47094e-05
5.21654e-05
5.14218e-05
5.49058e-05
6.28467e-05
7.00174e-05
7.81717e-05
8.50811e-05
9.13031e-05
9.51382e-05
9.5868e-05
9.22096e-05
7.77511e-05
6.43281e-05
6.06945e-05
6.17458e-05
6.69749e-05
7.45763e-05
7.40252e-05
6.38968e-05
5.16936e-05
5.18046e-05
5.63748e-05
6.47315e-05
7.34482e-05
7.90215e-05
8.48361e-05
9.15348e-05
9.28483e-05
9.13116e-05
8.34779e-05
7.17567e-05
6.41631e-05
6.02093e-05
5.78714e-05
5.62696e-05
5.51026e-05
5.31877e-05
4.8412e-05
4.64619e-05
4.8352e-05
5.39435e-05
6.23595e-05
7.20593e-05
7.87513e-05
7.93936e-05
7.72098e-05
7.33627e-05
7.14869e-05
7.0054e-05
6.73605e-05
6.35748e-05
6.03808e-05
5.79111e-05
5.66144e-05
5.67179e-05
5.78432e-05
6.02668e-05
6.34755e-05
6.73308e-05
7.01503e-05
7.05315e-05
7.01287e-05
6.92853e-05
6.88471e-05
7.04142e-05
0.000100124
0.000100121
0.000100115
0.0001001
0.00010007
0.000100013
9.9901e-05
9.97458e-05
9.96586e-05
9.9677e-05
9.9806e-05
9.99068e-05
9.99517e-05
9.99705e-05
9.99064e-05
9.9688e-05
9.94487e-05
9.9448e-05
9.9418e-05
9.94487e-05
9.88797e-05
9.72252e-05
9.38034e-05
8.88168e-05
8.62891e-05
8.91209e-05
9.55318e-05
9.68654e-05
9.80095e-05
9.92902e-05
9.5477e-05
7.23428e-05
5.75159e-05
5.34836e-05
5.29876e-05
5.31603e-05
5.59997e-05
6.27552e-05
6.97366e-05
8.10995e-05
9.17498e-05
9.6941e-05
9.8194e-05
9.91186e-05
9.84316e-05
8.87537e-05
6.82892e-05
5.83312e-05
5.66911e-05
5.78876e-05
6.22074e-05
7.04811e-05
7.11267e-05
6.21738e-05
5.40106e-05
5.52291e-05
6.10047e-05
6.99849e-05
7.79454e-05
8.39031e-05
9.15178e-05
9.53454e-05
9.47508e-05
9.08572e-05
7.86288e-05
6.70102e-05
6.13409e-05
5.87995e-05
5.71715e-05
5.56904e-05
5.37559e-05
5.02444e-05
4.70478e-05
4.74668e-05
5.09508e-05
5.79067e-05
6.71357e-05
7.6644e-05
8.14791e-05
8.14242e-05
7.93111e-05
7.72738e-05
7.65382e-05
7.52162e-05
7.15682e-05
6.59766e-05
6.15749e-05
5.89294e-05
5.75136e-05
5.74604e-05
5.83926e-05
6.09269e-05
6.52737e-05
7.07585e-05
7.46105e-05
7.53147e-05
7.50227e-05
7.43173e-05
7.39374e-05
7.57387e-05
0.00010012
0.000100103
0.000100069
0.000100002
9.98695e-05
9.96554e-05
9.93294e-05
9.89583e-05
9.87646e-05
9.87679e-05
9.88275e-05
9.88583e-05
9.8781e-05
9.85583e-05
9.81336e-05
9.74987e-05
9.69034e-05
9.67717e-05
9.64677e-05
9.66329e-05
9.71047e-05
9.65952e-05
9.59136e-05
9.6188e-05
9.62555e-05
9.56862e-05
9.37827e-05
9.33221e-05
9.47346e-05
9.79044e-05
9.75891e-05
7.84499e-05
6.34462e-05
5.69344e-05
5.62861e-05
5.78218e-05
6.36483e-05
6.98964e-05
8.14965e-05
9.36783e-05
9.73445e-05
9.81727e-05
9.93786e-05
0.000100474
9.86521e-05
8.41858e-05
6.41937e-05
5.53652e-05
5.51331e-05
5.64174e-05
6.06226e-05
6.76864e-05
6.74048e-05
5.95719e-05
5.61351e-05
5.89251e-05
6.61591e-05
7.5176e-05
8.26748e-05
9.03146e-05
9.63258e-05
9.75686e-05
9.58833e-05
8.879e-05
7.47038e-05
6.41966e-05
6.0191e-05
5.82163e-05
5.66774e-05
5.49127e-05
5.208e-05
4.84185e-05
4.74798e-05
4.9197e-05
5.43336e-05
6.23786e-05
7.21644e-05
8.06432e-05
8.33618e-05
8.29111e-05
8.14338e-05
8.0962e-05
8.0848e-05
7.96947e-05
7.58046e-05
6.91198e-05
6.32044e-05
6.01316e-05
5.87049e-05
5.85502e-05
5.94612e-05
6.2462e-05
6.83024e-05
7.50198e-05
7.91961e-05
8.03889e-05
8.03326e-05
7.99273e-05
7.96551e-05
8.12436e-05
0.000100097
0.00010001
9.98408e-05
9.95577e-05
9.90706e-05
9.82523e-05
9.72347e-05
9.6572e-05
9.64936e-05
9.66251e-05
9.67695e-05
9.67501e-05
9.64848e-05
9.59117e-05
9.50395e-05
9.40119e-05
9.32333e-05
9.2852e-05
9.19175e-05
9.12003e-05
9.07712e-05
8.86597e-05
8.65189e-05
8.6319e-05
8.64573e-05
8.54156e-05
8.46787e-05
8.56887e-05
8.84705e-05
9.40885e-05
9.83344e-05
8.77636e-05
6.98397e-05
6.42605e-05
6.37486e-05
6.57837e-05
7.19709e-05
8.18927e-05
9.43099e-05
9.68108e-05
9.61463e-05
9.67769e-05
9.79054e-05
0.000100086
9.84639e-05
8.20364e-05
6.0555e-05
5.40999e-05
5.44908e-05
5.63581e-05
6.09337e-05
6.47559e-05
6.29771e-05
5.77092e-05
5.81266e-05
6.33243e-05
7.17616e-05
7.97691e-05
8.8952e-05
9.57805e-05
9.89537e-05
9.90133e-05
9.62702e-05
8.6391e-05
7.19546e-05
6.27731e-05
5.96622e-05
5.79178e-05
5.62642e-05
5.40334e-05
5.08159e-05
4.85687e-05
4.88675e-05
5.19733e-05
5.8425e-05
6.7316e-05
7.69576e-05
8.36338e-05
8.48545e-05
8.40842e-05
8.36493e-05
8.41012e-05
8.42647e-05
8.31144e-05
7.96997e-05
7.31283e-05
6.56799e-05
6.1682e-05
6.01763e-05
6.00132e-05
6.11454e-05
6.51431e-05
7.25487e-05
7.93447e-05
8.4543e-05
8.62897e-05
8.62716e-05
8.56361e-05
8.4984e-05
8.45516e-05
9.98704e-05
9.93404e-05
9.85352e-05
9.72601e-05
9.52614e-05
9.3011e-05
9.12295e-05
9.10206e-05
9.13583e-05
9.1951e-05
9.22552e-05
9.21753e-05
9.16399e-05
9.06632e-05
8.95132e-05
8.86118e-05
8.81345e-05
8.75899e-05
8.60018e-05
8.37661e-05
8.08131e-05
7.59808e-05
7.22387e-05
7.15554e-05
7.22392e-05
7.31025e-05
7.45917e-05
7.70931e-05
8.07633e-05
8.73918e-05
9.64467e-05
9.62477e-05
8.34947e-05
7.54561e-05
7.38155e-05
7.69632e-05
8.54532e-05
9.52857e-05
9.58513e-05
9.28765e-05
9.22842e-05
9.30666e-05
9.55593e-05
9.94385e-05
9.86188e-05
8.14205e-05
5.96093e-05
5.34226e-05
5.40576e-05
5.66303e-05
5.98963e-05
6.03365e-05
5.83833e-05
5.78993e-05
6.08529e-05
6.85345e-05
7.67876e-05
8.54544e-05
9.46951e-05
9.89276e-05
0.000100302
9.99059e-05
9.59542e-05
8.50171e-05
7.05159e-05
6.22016e-05
5.94235e-05
5.77356e-05
5.59257e-05
5.34607e-05
5.08159e-05
4.99577e-05
5.12258e-05
5.56544e-05
6.31544e-05
7.26406e-05
8.12744e-05
8.59592e-05
8.6097e-05
8.57886e-05
8.61485e-05
8.73525e-05
8.75744e-05
8.64045e-05
8.29972e-05
7.72781e-05
6.9366e-05
6.40375e-05
6.21405e-05
6.20257e-05
6.37722e-05
6.91688e-05
7.70258e-05
8.45392e-05
8.99838e-05
9.08365e-05
9.0301e-05
8.8925e-05
8.75324e-05
8.55455e-05
9.71601e-05
9.36799e-05
9.05571e-05
8.74283e-05
8.34744e-05
8.00226e-05
7.96778e-05
8.05308e-05
8.20827e-05
8.32536e-05
8.35207e-05
8.32632e-05
8.23948e-05
8.13078e-05
8.06939e-05
8.05679e-05
8.03245e-05
7.93623e-05
7.65029e-05
7.27228e-05
6.80881e-05
6.32503e-05
6.10504e-05
6.14018e-05
6.25126e-05
6.43402e-05
6.65349e-05
6.91645e-05
7.23827e-05
7.82367e-05
8.92778e-05
9.62719e-05
9.62457e-05
9.16921e-05
8.93763e-05
9.26704e-05
9.66332e-05
9.39135e-05
8.87017e-05
8.71059e-05
8.75701e-05
8.93617e-05
9.29782e-05
9.84121e-05
9.90838e-05
8.53055e-05
6.20526e-05
5.32169e-05
5.33206e-05
5.50637e-05
5.63253e-05
5.64561e-05
5.70089e-05
5.90874e-05
6.51429e-05
7.39381e-05
8.16703e-05
9.16588e-05
9.83579e-05
0.000100464
0.00010094
0.000100377
9.5416e-05
8.45909e-05
7.01703e-05
6.20966e-05
5.9359e-05
5.76573e-05
5.58211e-05
5.36375e-05
5.21067e-05
5.2324e-05
5.4532e-05
6.01479e-05
6.84556e-05
7.76312e-05
8.51032e-05
8.74558e-05
8.74377e-05
8.76689e-05
8.9137e-05
9.07239e-05
9.09992e-05
8.99275e-05
8.66776e-05
8.10958e-05
7.40639e-05
6.77586e-05
6.5162e-05
6.50952e-05
6.77317e-05
7.40231e-05
8.18727e-05
9.04772e-05
9.35692e-05
9.3384e-05
9.18749e-05
8.95056e-05
8.75678e-05
8.64807e-05
4.39896e-05
5.44576e-05
5.79785e-05
5.76006e-05
5.74966e-05
5.87257e-05
6.14104e-05
6.45329e-05
6.66076e-05
6.75372e-05
6.75156e-05
6.71769e-05
6.71968e-05
6.75312e-05
6.83106e-05
6.86403e-05
6.80202e-05
6.56175e-05
6.10975e-05
5.74141e-05
5.46174e-05
5.30255e-05
5.30657e-05
5.3858e-05
5.54492e-05
5.73687e-05
5.93494e-05
6.16123e-05
6.39216e-05
6.82624e-05
7.71796e-05
8.67687e-05
9.2373e-05
9.44627e-05
9.50733e-05
9.31815e-05
8.79989e-05
8.26888e-05
8.08815e-05
8.1218e-05
8.25366e-05
8.52353e-05
9.00194e-05
9.68552e-05
9.94913e-05
8.9924e-05
6.60314e-05
5.37873e-05
5.28527e-05
5.35366e-05
5.47199e-05
5.6005e-05
5.79812e-05
6.26866e-05
7.09652e-05
7.897e-05
8.88283e-05
9.70354e-05
9.97247e-05
0.000100519
0.000100916
0.000100516
9.51979e-05
8.51902e-05
7.27834e-05
6.35368e-05
6.00273e-05
5.81787e-05
5.6585e-05
5.51643e-05
5.47156e-05
5.55463e-05
5.89413e-05
6.55801e-05
7.41716e-05
8.23855e-05
8.80512e-05
8.88808e-05
8.91759e-05
9.03581e-05
9.26768e-05
9.41845e-05
9.45497e-05
9.37675e-05
9.10465e-05
8.56067e-05
7.87053e-05
7.3007e-05
6.9857e-05
6.98091e-05
7.30135e-05
7.89867e-05
8.89801e-05
9.49113e-05
9.56842e-05
9.44608e-05
9.19725e-05
8.94431e-05
8.83717e-05
8.86695e-05
2.74027e-05
2.97981e-05
3.20691e-05
3.41327e-05
3.63104e-05
3.84387e-05
4.06619e-05
4.23426e-05
4.34795e-05
4.45385e-05
4.56078e-05
4.69919e-05
4.8317e-05
4.93615e-05
4.96082e-05
4.90021e-05
4.73474e-05
4.55949e-05
4.42665e-05
4.41807e-05
4.43494e-05
4.4781e-05
4.55938e-05
4.68566e-05
4.85613e-05
5.03885e-05
5.22116e-05
5.40149e-05
5.52894e-05
5.78524e-05
6.33456e-05
6.89303e-05
7.26683e-05
7.45059e-05
7.60666e-05
7.45857e-05
7.32216e-05
7.32462e-05
7.38681e-05
7.49737e-05
7.69134e-05
8.06179e-05
8.65864e-05
9.41573e-05
9.91261e-05
9.50519e-05
7.0406e-05
5.73784e-05
5.42749e-05
5.46134e-05
5.58281e-05
5.7933e-05
6.21836e-05
6.90295e-05
7.66031e-05
8.70922e-05
9.58706e-05
9.88335e-05
9.92332e-05
9.95547e-05
0.000100447
0.000100685
9.64454e-05
8.76395e-05
7.67092e-05
6.70045e-05
6.21765e-05
6.00121e-05
5.87096e-05
5.80429e-05
5.82546e-05
6.0137e-05
6.47108e-05
7.20085e-05
7.96972e-05
8.74021e-05
9.0187e-05
9.0708e-05
9.17495e-05
9.39595e-05
9.62759e-05
9.74764e-05
9.78703e-05
9.74061e-05
9.55248e-05
9.13796e-05
8.43877e-05
7.83129e-05
7.55647e-05
7.55127e-05
7.85194e-05
8.70895e-05
9.5103e-05
9.74814e-05
9.70074e-05
9.45584e-05
9.24047e-05
9.10179e-05
9.11292e-05
9.29183e-05
2.63398e-05
2.65762e-05
2.69279e-05
2.74107e-05
2.79688e-05
2.85211e-05
2.90745e-05
2.96132e-05
3.01986e-05
3.08936e-05
3.16374e-05
3.23644e-05
3.28443e-05
3.31687e-05
3.32954e-05
3.33039e-05
3.34365e-05
3.39455e-05
3.46474e-05
3.55506e-05
3.63664e-05
3.7158e-05
3.81584e-05
3.95923e-05
4.14079e-05
4.32989e-05
4.49825e-05
4.63587e-05
4.72961e-05
4.89796e-05
5.20707e-05
5.50312e-05
5.70498e-05
5.87553e-05
6.138e-05
6.31992e-05
6.45011e-05
6.56488e-05
6.68747e-05
6.86062e-05
7.13079e-05
7.57773e-05
8.18895e-05
8.9386e-05
9.63748e-05
9.82043e-05
8.15486e-05
6.48875e-05
5.85975e-05
5.81863e-05
5.98246e-05
6.36352e-05
6.94537e-05
7.5443e-05
8.57302e-05
9.55925e-05
9.83272e-05
9.75439e-05
9.7003e-05
9.78406e-05
9.98594e-05
0.000100838
9.82162e-05
9.17948e-05
8.12916e-05
7.28236e-05
6.70179e-05
6.39907e-05
6.27038e-05
6.25365e-05
6.35418e-05
6.65165e-05
7.17838e-05
7.82761e-05
8.61371e-05
9.12645e-05
9.24279e-05
9.3254e-05
9.51894e-05
9.75963e-05
9.90154e-05
9.96016e-05
9.97805e-05
9.96021e-05
9.87994e-05
9.66357e-05
9.19967e-05
8.61162e-05
8.23732e-05
8.2716e-05
8.78968e-05
9.48989e-05
9.85976e-05
9.89211e-05
9.77861e-05
9.55151e-05
9.49538e-05
9.47123e-05
9.53744e-05
9.72315e-05
2.62792e-05
2.6296e-05
2.63282e-05
2.63836e-05
2.64557e-05
2.65362e-05
2.66352e-05
2.67573e-05
2.69117e-05
2.70946e-05
2.72993e-05
2.75149e-05
2.77043e-05
2.78779e-05
2.80429e-05
2.82219e-05
2.84941e-05
2.88934e-05
2.93721e-05
2.99545e-05
3.05391e-05
3.1198e-05
3.21247e-05
3.3558e-05
3.53927e-05
3.73342e-05
3.91288e-05
4.08084e-05
4.24798e-05
4.43058e-05
4.64754e-05
4.87385e-05
5.07977e-05
5.28832e-05
5.54161e-05
5.68366e-05
5.78566e-05
5.9092e-05
6.08208e-05
6.30671e-05
6.62226e-05
7.07204e-05
7.59194e-05
8.24667e-05
9.00021e-05
9.77167e-05
9.33609e-05
7.50173e-05
6.71567e-05
6.62124e-05
6.80323e-05
7.15674e-05
7.7462e-05
8.63958e-05
9.58311e-05
9.75435e-05
9.49936e-05
9.36219e-05
9.39575e-05
9.59057e-05
9.8535e-05
0.000100275
9.9749e-05
9.67028e-05
8.89643e-05
7.89861e-05
7.40088e-05
7.0929e-05
6.94478e-05
6.94885e-05
7.097e-05
7.4062e-05
7.86608e-05
8.58105e-05
9.20446e-05
9.42454e-05
9.51368e-05
9.66179e-05
9.85416e-05
9.9681e-05
0.000100015
9.97515e-05
9.94952e-05
9.96531e-05
9.98842e-05
9.93551e-05
9.77758e-05
9.46679e-05
9.227e-05
9.28047e-05
9.63438e-05
9.91047e-05
0.000100147
9.98504e-05
9.89506e-05
9.81545e-05
9.82616e-05
9.8309e-05
9.87839e-05
9.95321e-05
2.62758e-05
2.62768e-05
2.62794e-05
2.62846e-05
2.62921e-05
2.63022e-05
2.63172e-05
2.63392e-05
2.63705e-05
2.64086e-05
2.64535e-05
2.65047e-05
2.65585e-05
2.66202e-05
2.66918e-05
2.6775e-05
2.68893e-05
2.70421e-05
2.72378e-05
2.74976e-05
2.78138e-05
2.83029e-05
2.91537e-05
3.0431e-05
3.22374e-05
3.43672e-05
3.666e-05
3.88453e-05
4.09173e-05
4.29553e-05
4.50702e-05
4.71637e-05
4.8976e-05
5.04759e-05
5.18453e-05
5.24615e-05
5.32426e-05
5.46585e-05
5.67358e-05
5.92256e-05
6.23052e-05
6.60817e-05
7.00118e-05
7.5042e-05
8.15658e-05
9.19722e-05