/*--------------------------------*- C++ -*----------------------------------*\
| =========                 |                                                 |
| \\      /  F ield         | OpenFOAM: The Open Source CFD Toolbox           |
|  \\    /   O peration     | Version:  2.3.0                                 |
|   \\  /    A nd           | Web:      www.OpenFOAM.org                      |
|    \\/     M anipulation  |                                                 |
\*---------------------------------------------------------------------------*/
FoamFile
{
    version     2.0;
    format      ascii;
    class       volVectorField;
    location    "0.05";
    object      U;
}
// * * * * * * * * * * * * * * * * * * * * * * * * * * * * * * * * * * * * * //

dimensions      [0 1 -1 0 0 0 0];

internalField   nonuniform List<vector> 
5000
(
(53.6951 2.34229 1.42157)
(52.1055 1.509 1.83826)
(50.2835 1.1558 0.97509)
(48.7171 0.973553 0.375096)
(47.3888 0.503744 -0.287664)
(47.1644 0.127141 -0.580512)
(47.2096 -0.0498842 -0.609944)
(47.4089 -0.277578 -0.595697)
(48.0698 -0.59132 -0.510684)
(49.0106 -0.714146 -0.433779)
(49.8964 -0.6453 -0.246685)
(50.8742 -0.496301 0.115071)
(51.6453 0.0197284 0.402878)
(51.6531 0.190998 0.429843)
(51.7664 0.307198 0.37617)
(51.8226 0.27861 0.264141)
(51.7831 0.117033 0.110822)
(51.7575 -0.0189281 -0.0957611)
(51.7777 -0.123942 -0.269086)
(51.901 -0.14183 -0.344682)
(51.8008 -0.077297 -0.338097)
(51.3274 0.00472405 -0.366061)
(50.049 0.20501 -0.554605)
(47.647 0.342135 -0.502088)
(44.9316 0.218686 0.000321354)
(43.8429 0.066382 0.439439)
(43.6503 0.00474035 0.515825)
(43.5921 -0.0428397 0.534293)
(43.907 -0.102164 0.571868)
(44.9309 -0.26296 0.62768)
(47.7298 -0.378786 0.584232)
(49.3886 0.0181592 0.419743)
(49.2554 0.0942983 0.390928)
(48.4188 0.268681 0.364586)
(46.1307 0.466259 0.322438)
(42.9872 0.332329 0.234032)
(41.6566 0.0577945 0.172287)
(41.7215 -0.0872125 0.159844)
(42.3274 -0.181128 0.125179)
(43.8966 -0.301971 0.103741)
(46.432 -0.373668 0.0719791)
(48.7259 -0.247633 0.22609)
(49.5124 -0.0665745 -0.174958)
(49.6195 -0.0252525 -0.0303035)
(49.6907 -0.0482536 0.105344)
(49.8285 -0.0426219 0.403279)
(49.8178 0.00234145 0.49815)
(49.8445 -0.00126454 0.541115)
(50.4754 -0.0106193 0.302854)
(50.4882 0.106534 0.142853)
(49.0508 0.347095 0.0216367)
(44.5577 0.525781 -0.156162)
(39.7309 0.113567 0.16352)
(39.2837 -0.0186186 0.199429)
(39.5294 -0.147322 0.51352)
(40.1345 0.590745 -0.148351)
(40.4851 0.176954 0.485348)
(41.5004 -0.0778834 0.847819)
(43.002 0.900207 0.909303)
(43.6023 0.141959 1.54938)
(45.4602 -0.152328 1.82211)
(47.605 0.456917 1.77209)
(49.6483 -0.106088 1.79313)
(52.5758 -0.281611 1.65076)
(55.8311 -0.3411 1.66067)
(59.1507 -0.291351 1.70167)
(62.3292 -0.208565 1.34569)
(64.3106 0.0324291 0.662943)
(64.214 0.19472 0.606024)
(63.0679 0.33804 0.583735)
(59.6162 0.540491 0.347481)
(52.5409 0.506985 0.0877523)
(47.8584 0.151937 0.0623302)
(47.3982 -0.0494763 0.0907366)
(47.3968 -0.00443093 0.0339404)
(48.374 -0.668286 0.493619)
(48.9576 0.655898 -0.967991)
(48.9794 -0.033284 -1.61821)
(49.1433 0.745979 -1.76719)
(49.2375 -0.0934558 -2.51568)
(50.8287 0.208138 -3.02362)
(53.9827 -0.338178 -3.20601)
(55.8708 -0.0579598 -2.73766)
(55.7303 0.160608 -2.60038)
(54.4258 0.112921 -2.62287)
(52.9946 -0.0662439 -2.34756)
(52.3251 0.13206 -2.00229)
(49.9931 0.62283 -1.94884)
(44.0472 0.101908 -1.27078)
(40.9843 -0.298544 0.254483)
(41.511 -0.15098 0.228892)
(42.78 -0.146195 0.741221)
(44.4933 -0.122294 1.65172)
(46.8212 1.0124 1.47152)
(46.9877 0.199926 1.54065)
(47.5407 -0.0641354 1.45692)
(47.8016 0.0411008 1.91009)
(48.2752 -0.352121 2.11398)
(48.1717 0.462909 1.98286)
(46.5557 -0.0564211 2.1016)
(46.1646 -2.92024 1.06433)
(50.2326 -1.33158 1.79711)
(50.2095 -0.496041 2.06328)
(49.6654 -0.357306 0.929588)
(49.039 -0.173411 -1.6471)
(49.0663 -0.140706 -2.10616)
(49.1923 -0.0429695 -2.08019)
(49.2108 0.081187 -1.87011)
(49.1765 0.294289 -1.34014)
(48.9167 0.434385 -0.836616)
(48.3827 0.255106 -0.377113)
(47.7093 0.0321339 0.0686868)
(47.1857 -0.264153 0.45894)
(46.9832 -0.495348 0.779712)
(47.0424 -0.646815 0.697279)
(47.3205 -0.537336 0.936318)
(47.6472 -0.197196 1.80045)
(47.8287 0.019324 1.69792)
(48.0467 0.17482 1.35768)
(48.49 0.196141 0.401563)
(48.5993 0.419493 -0.216278)
(48.1501 0.564738 -0.542906)
(47.1692 0.862708 -0.951728)
(45.3718 0.981965 -0.952654)
(42.9544 0.816801 -0.656705)
(41.9837 0.191124 -0.193319)
(42.0464 0.105848 -0.148882)
(42.1004 -0.00455634 -0.078745)
(42.6835 -0.201932 0.065033)
(44.1905 -0.605469 0.249897)
(47.7717 -1.0026 0.143233)
(50.0761 -0.118712 -0.33396)
(49.9164 0.117508 -0.430364)
(48.9912 0.404427 -0.525075)
(46.5775 0.762928 -0.571167)
(43.3332 0.605674 -0.664116)
(41.7255 0.288788 -0.802979)
(41.8191 -0.0889799 -0.843305)
(42.5835 -0.30163 -0.923656)
(44.4409 -0.612384 -1.03042)
(47.2557 -0.702557 -0.963603)
(49.3862 -0.396363 -0.630723)
(49.8567 -0.122524 -0.480828)
(49.8837 -0.00239368 -0.385341)
(49.7768 0.0224189 -0.352949)
(49.6728 0.030511 -0.404287)
(49.551 0.021961 -0.522031)
(49.5888 -0.129692 -0.569808)
(50.5232 -0.22236 -0.465084)
(51.0102 0.238028 -0.236964)
(50.0656 0.764614 -0.233045)
(47.1396 1.28009 -0.361753)
(42.0911 1.04805 -0.160763)
(39.5097 0.0644911 0.472765)
(38.3422 0.0436938 0.732328)
(38.4844 -0.51949 0.798758)
(39.0899 -0.56823 0.930261)
(40.0012 -0.507956 1.39406)
(41.1732 -0.547382 2.01685)
(42.4783 -0.665574 2.38156)
(43.9149 -0.464779 2.03433)
(45.6865 -0.609377 1.63785)
(47.948 -0.690839 1.22877)
(50.7061 -0.624732 1.03633)
(53.9936 -0.65982 1.01128)
(57.6585 -0.912742 1.06832)
(61.6925 -0.982396 1.18603)
(65.7251 -0.780462 0.753547)
(66.1306 -0.358179 0.491447)
(65.1407 0.294791 0.381961)
(60.9928 1.18448 1.20979)
(52.5838 1.34202 1.74206)
(47.4832 0.688368 -1.13861)
(46.8561 0.0312921 -2.70101)
(46.8476 -0.100138 -3.05174)
(46.6141 0.553625 -3.18468)
(46.1872 0.0699584 -4.09198)
(46.0007 -0.0379231 -5.57364)
(46.1496 -0.371393 -6.78079)
(46.9707 -0.144445 -8.53963)
(48.7792 -0.518737 -10.0958)
(51.8688 -0.232368 -10.5493)
(55.3523 -0.190305 -11.0775)
(57.7574 0.258748 -11.41)
(59.1069 0.249565 -10.5219)
(59.706 0.745676 -9.65725)
(60.5601 0.269745 -7.55226)
(60.08 0.670199 -6.70883)
(56.2692 1.32533 -5.7678)
(47.446 0.858125 -2.79118)
(41.5909 -0.112423 1.16263)
(41.3279 -0.266607 2.52983)
(41.9 -0.41056 2.97339)
(44.1011 -0.962536 3.61374)
(46.6654 -0.437512 5.88032)
(48.7061 0.0121373 6.62405)
(50.1566 0.0715109 6.98038)
(50.4783 0.613645 6.70664)
(50.7093 0.230513 7.49489)
(51.0894 0.354444 6.48162)
(53.8226 -1.93875 -0.180205)
(53.8846 -0.348752 0.614784)
(52.7161 0.963869 1.53886)
(51.7668 1.29584 1.27714)
(50.847 0.704516 0.97756)
(50.4225 0.0980822 1.07988)
(50.4533 -0.108009 1.15773)
(50.818 -0.360587 1.03564)
(51.6204 -0.651599 0.15619)
(52.6527 -0.686659 -0.304918)
(53.2679 -0.290239 0.330411)
(53.1697 -0.00709699 0.651761)
(52.766 0.317512 1.1098)
(52.104 0.410261 1.68132)
(50.8594 0.495157 2.23702)
(49.315 0.323694 0.924136)
(47.9063 0.0468075 -0.677081)
(46.8034 -0.188344 -0.711113)
(46.3796 -0.497501 -0.409992)
(46.613 -0.568906 -0.294824)
(46.6509 -0.118306 -0.166491)
(46.193 0.148294 -0.0839922)
(45.1425 0.579297 -0.0171915)
(43.0432 1.03033 0.260499)
(40.4728 0.885845 0.927184)
(40.018 0.0883 1.16613)
(40.267 -0.0945613 1.1524)
(40.8088 -0.264465 1.00761)
(42.154 -0.660907 0.932349)
(44.3879 -1.42034 0.99674)
(48.7712 -1.94949 0.890101)
(51.9592 -0.230419 0.427998)
(51.9538 0.303531 0.33627)
(51.0497 1.02274 0.252666)
(48.8043 1.73863 0.192323)
(45.679 1.26441 0.0496852)
(42.8902 0.387511 -0.319838)
(42.5735 -0.387253 -0.482484)
(43.2415 -0.757197 -0.650216)
(44.9689 -1.29078 -0.880456)
(47.8408 -1.29803 -0.786461)
(50.1463 -0.681494 -0.354079)
(50.3817 -0.126136 -0.18571)
(50.036 -0.000137802 -0.110305)
(49.2564 0.0207687 -0.199007)
(48.9045 0.00109629 -0.397361)
(48.9304 0.0144991 -0.4427)
(49.235 -0.191067 -0.487584)
(50.5105 -0.366631 -0.439694)
(51.5716 0.0952336 -0.242922)
(50.9983 0.718985 -0.225384)
(48.8595 1.57454 -0.281449)
(44.8585 1.53504 -0.0325517)
(41.3099 0.897088 0.298417)
(38.8434 0.292171 0.404142)
(38.2004 0.144573 0.419152)
(38.2829 0.128915 0.413986)
(38.7722 -0.0628224 0.480347)
(39.7425 0.0347538 0.76163)
(40.946 0.084418 0.820164)
(42.4503 -0.224536 0.669795)
(44.5355 -0.0940283 0.376732)
(47.0408 -0.226861 -0.161811)
(50.2347 -0.467985 -0.51753)
(54.2735 -0.571534 -1.32996)
(58.6907 -0.710961 -1.94634)
(62.8864 -0.960287 -1.49587)
(67.6146 -1.19859 -1.01842)
(70.8773 -0.828331 -0.842712)
(70.3382 -0.29947 -0.743015)
(65.2574 1.54716 0.523829)
(52.6006 1.8903 1.20188)
(46.0779 0.536482 -0.865989)
(45.0602 -0.220599 -2.57609)
(43.1035 0.377972 -4.53264)
(41.5351 -0.562672 -6.3292)
(41.4422 0.0230822 -6.62685)
(41.6139 0.102954 -7.49758)
(41.6805 0.372124 -8.96031)
(42.1753 -0.155815 -9.76432)
(43.6564 -0.583124 -9.96512)
(45.9164 -0.873844 -9.62879)
(48.7156 -0.847375 -9.78323)
(51.8451 -0.434352 -11.4375)
(55.2626 -0.332192 -13.7026)
(60.1349 -0.721272 -13.8186)
(65.7242 0.0386126 -10.0275)
(65.7672 0.803119 -8.83209)
(63.8621 1.75758 -7.8934)
(57.2479 1.95682 -5.94704)
(46.4055 0.985824 -1.62334)
(40.4394 -0.0505717 1.37043)
(40.2791 -0.326198 1.8328)
(40.7044 0.00326644 1.80833)
(41.3969 -0.201442 2.37387)
(42.6632 -0.408491 2.87594)
(44.4598 -0.373548 4.05042)
(46.1344 -0.839109 4.13988)
(47.581 -0.264734 4.32055)
(48.9245 -0.375817 4.40796)
(49.8723 -1.86572 -1.11825)
(49.2851 -0.38857 0.881075)
(48.2366 0.527832 0.424586)
(48.4385 0.455659 0.0675931)
(49.5968 0.440253 -0.0597658)
(50.4651 0.178585 -0.368076)
(50.833 -0.169128 -0.631611)
(51.3208 -0.34208 -0.809158)
(51.8997 -0.463731 -1.08218)
(52.0327 -0.174123 -1.71077)
(51.8523 -0.0547954 -1.70395)
(51.5097 0.0901676 -1.74021)
(50.9462 0.115354 -1.54053)
(50.3464 0.1735 -0.656357)
(49.9167 0.460168 0.270183)
(49.5909 0.681499 0.633083)
(49.3107 0.836516 0.80025)
(48.732 0.754265 0.838167)
(48.3382 0.466319 0.697749)
(48.6624 0.324124 0.639581)
(48.9138 0.630663 0.586457)
(48.2938 0.970125 0.590712)
(46.8083 1.7253 0.61074)
(44.319 2.14793 0.529134)
(41.3987 1.40484 0.240032)
(40.6538 0.0882463 0.0553067)
(40.9965 -0.125088 -0.00362094)
(41.6314 -0.599051 -0.0710864)
(43.0082 -1.20817 0.0368707)
(45.1868 -2.22233 0.271683)
(49.4035 -2.95029 0.29564)
(52.659 -1.03359 0.0219071)
(52.9747 0.323646 -0.0551771)
(52.6054 0.894079 -0.0157462)
(51.2737 1.75777 0.169717)
(48.7389 1.87671 0.364945)
(45.3559 1.32591 -0.29541)
(44.0389 -0.148979 -0.949413)
(44.2695 -0.712154 -1.07168)
(45.4766 -1.55594 -1.24195)
(48.1452 -1.90231 -1.1698)
(50.9201 -0.907833 -0.594168)
(51.5113 -0.00871026 -0.288732)
(51.1773 0.372991 -0.221556)
(50.2412 0.378031 -0.216196)
(49.4497 0.122321 -0.164018)
(49.3622 -0.00417441 -0.116664)
(49.6289 -0.493344 -0.0310031)
(50.9085 -0.717963 0.0419055)
(52.4451 -0.0186252 0.0104555)
(52.0232 1.07714 -0.0119201)
(50.1417 2.1925 0.0660751)
(46.3992 2.40809 0.262762)
(42.7512 1.36704 0.220956)
(39.3808 0.965877 -0.00659958)
(37.5794 -0.0149265 -0.1411)
(37.5687 -0.3404 -0.143339)
(37.895 -0.420756 -0.105455)
(38.8624 -0.51929 0.107845)
(40.2501 -0.585185 0.158208)
(42.0519 -0.531088 0.0364062)
(44.4069 -0.747679 -0.190268)
(47.2167 -0.975473 -0.165811)
(50.6403 -1.22996 -0.149026)
(54.9142 -1.45209 -0.804793)
(59.6402 -1.49589 -1.1906)
(64.0487 -1.43295 -0.551293)
(68.7569 -1.46629 -0.103211)
(74.0025 -1.08197 -0.63538)
(74.4971 -0.529125 -0.661205)
(70.9623 1.62702 -0.0453772)
(56.6669 2.99633 1.08083)
(44.7013 0.657342 -1.18796)
(41.3702 0.298857 -3.8346)
(38.8239 0.650828 -5.68554)
(37.9993 0.855332 -6.27007)
(37.8562 0.285652 -6.95824)
(38.4046 0.144824 -7.55511)
(39.4552 0.00509882 -7.77999)
(40.6123 -0.0922291 -7.28472)
(42.0399 -0.364521 -6.59058)
(43.9784 -0.724491 -6.13675)
(46.5459 -1.0287 -6.22651)
(49.7138 -1.27417 -6.66801)
(53.2499 -1.31008 -7.03652)
(57.5022 -1.43133 -7.41033)
(63.6555 -1.4093 -7.28035)
(66.7539 0.208141 -7.08374)
(65.4984 1.57606 -7.09665)
(60.9288 2.90856 -6.62748)
(50.1766 2.41244 -3.33744)
(41.6504 0.646151 0.172659)
(40.2564 -0.118696 0.968715)
(40.5475 -0.21585 1.03253)
(41.6375 -0.450031 1.06433)
(43.541 -0.413403 1.20452)
(45.6525 -0.342879 1.93451)
(47.2222 0.39969 1.43035)
(48.0968 0.0276105 2.12355)
(49.6879 0.284145 2.5461)
(53.1429 0.959721 -0.258837)
(47.805 1.74227 -1.50313)
(46.1189 0.802884 -1.35982)
(46.6678 0.0235095 -0.852369)
(48.23 -0.71625 -0.790873)
(50.3263 -0.643828 1.47105)
(51.7704 -0.5741 2.1458)
(52.9622 -0.915489 0.931666)
(53.758 -0.935233 -0.794419)
(53.7086 -0.662113 -1.19748)
(53.3546 -0.226741 -1.57323)
(52.2271 0.18662 -2.14432)
(50.105 0.513635 -2.26627)
(47.7785 0.554161 -1.30778)
(47.1913 0.467393 -0.783416)
(47.1541 0.287654 -0.702249)
(47.2441 0.19168 -0.680837)
(47.5446 0.0318656 -0.766567)
(48.161 -0.529504 -1.03057)
(49.62 -1.02477 -1.10222)
(50.6507 -0.00649098 -0.96144)
(50.3493 0.773098 -0.902166)
(49.5108 1.6003 -0.812927)
(47.7035 2.34009 -0.697689)
(44.9665 1.85002 -0.427205)
(42.9699 0.120975 -0.171367)
(42.8517 -0.426581 -0.137066)
(42.9323 -0.796114 -0.118554)
(43.8018 -1.50785 0.104815)
(45.9655 -2.84347 0.792013)
(50.2086 -3.66443 1.0028)
(53.3216 -1.13777 0.00224577)
(53.5764 0.292082 -0.292955)
(53.0474 1.19801 -0.328397)
(51.1826 2.48061 -0.160683)
(48.5193 2.43212 -0.114269)
(44.9395 1.88249 -0.466711)
(43.3428 0.107713 -0.683871)
(43.6014 -0.557973 -0.682072)
(44.7371 -1.86973 -0.579225)
(47.151 -2.72833 -0.490795)
(50.581 -2.03244 -0.599893)
(52.0214 -0.401948 -0.769284)
(51.7696 0.212626 -0.922376)
(51.1616 0.470095 -0.972907)
(50.5852 0.23494 -0.447244)
(49.9855 0.197467 0.435379)
(50.1443 -0.235034 0.76837)
(51.3176 -0.968303 1.0876)
(52.9917 -0.415375 0.567116)
(52.8218 0.822675 0.343363)
(51.277 2.28403 0.147666)
(47.6769 2.90272 0.0925809)
(43.6428 2.2696 -0.0225)
(39.5468 1.84999 -0.0763573)
(37.3804 0.817966 -0.0107201)
(37.0822 0.581115 0.0499485)
(37.4202 0.368552 0.105382)
(38.48 0.222252 0.245999)
(40.0166 0.0967084 0.400438)
(41.9382 -0.341827 0.464107)
(44.5592 -0.494057 0.63728)
(47.5299 -0.781467 0.91153)
(51.0869 -1.2533 1.04715)
(55.6473 -1.54681 0.771619)
(60.7975 -1.57729 0.322935)
(65.5387 -1.4688 0.765915)
(70.5198 -1.45885 1.41998)
(75.8485 -0.929351 0.672627)
(76.6326 -0.198268 0.166269)
(74.0449 1.75444 0.588925)
(63.0245 4.11934 1.50831)
(44.7928 2.02926 -1.23411)
(39.7916 0.0893364 -3.48571)
(37.1759 1.25653 -4.58222)
(36.2971 0.18432 -5.15101)
(36.3584 0.138349 -5.38714)
(36.7339 0.161782 -5.79035)
(37.6379 0.345262 -5.71026)
(38.7815 0.116957 -5.04085)
(40.3914 -0.360474 -4.25548)
(42.5595 -0.804125 -3.77417)
(45.3467 -1.11156 -3.8558)
(48.9836 -0.844792 -4.63486)
(52.8975 -0.606984 -4.60824)
(57.6746 -1.86959 -2.96666)
(65.1303 -1.37685 -2.32696)
(68.3779 -0.409731 -3.52858)
(67.2603 1.16579 -3.99886)
(63.3496 2.40765 -4.54878)
(53.2283 2.92094 -2.89162)
(42.6909 0.810512 -0.267402)
(40.3012 0.013641 0.579767)
(40.4724 -0.301584 0.6119)
(41.5274 -0.309432 0.81005)
(43.365 -0.394738 1.34634)
(45.1023 -0.379543 2.03226)
(46.8804 -0.540098 2.25855)
(48.2988 -0.385242 1.82068)
(49.9385 -0.378939 1.35139)
(51.194 4.41415 -0.723332)
(50.5823 3.16033 -1.91294)
(51.3009 1.15504 -1.65459)
(52.6696 -0.309173 -0.781076)
(53.7845 -0.962826 -0.110353)
(54.0205 -1.18363 0.0333279)
(53.6971 -1.17845 0.148678)
(52.7701 -0.912169 -0.0117262)
(52.3663 -0.440209 -0.325275)
(52.2336 0.171525 -0.438591)
(51.8323 0.673248 -0.542643)
(50.9145 1.5619 -0.684644)
(49.3189 2.1348 -0.626857)
(47.7742 1.35478 0.0511851)
(47.3287 0.494207 0.521947)
(47.3142 0.408576 0.554641)
(47.4843 0.414789 0.488843)
(47.9732 0.186732 0.297412)
(48.4114 -0.369917 0.298821)
(49.1854 -0.559048 0.32284)
(50.2874 0.357153 -0.241728)
(50.1523 1.06975 -0.400064)
(49.5138 2.13887 -0.506775)
(47.9542 3.11871 -0.568928)
(45.1298 2.73338 -0.443008)
(42.6817 0.917522 -0.165747)
(42.5518 0.0497339 -0.0788406)
(42.7842 -0.636112 0.0254244)
(43.7684 -1.81084 0.195063)
(46.4039 -3.67251 0.735066)
(50.9402 -4.96275 0.946171)
(54.7305 -1.62745 0.300459)
(54.7145 0.259748 0.148895)
(53.8385 1.26575 0.0267418)
(51.5428 2.68516 -0.014453)
(48.4314 3.23666 -0.175126)
(44.6927 3.00927 -0.437102)
(42.8043 0.855782 -0.511789)
(42.963 0.334491 -0.470126)
(43.9782 -1.0166 -0.264497)
(46.1162 -2.81162 0.0324868)
(49.3593 -3.26999 -0.0857253)
(52.3884 -1.6648 -0.819124)
(52.7537 -0.634979 -1.13929)
(52.2961 0.100443 -1.18518)
(51.5622 0.30721 -0.416672)
(51.0239 0.649816 0.633908)
(51.0785 0.166392 0.83075)
(52.0728 -0.53961 0.970201)
(53.547 -0.135468 0.878881)
(53.4353 0.695876 0.815819)
(51.7547 2.36046 0.74781)
(47.5439 3.48 0.40073)
(43.3292 2.77452 -0.0207488)
(39.3503 2.77469 -0.168804)
(36.8727 1.05946 -0.0427935)
(36.5838 0.371923 0.105189)
(36.9607 0.0647713 0.204007)
(38.1435 -0.276489 0.438063)
(39.7888 -0.466933 0.572126)
(41.898 -0.73701 0.577741)
(44.5695 -1.04872 0.681762)
(47.627 -1.3846 0.782478)
(51.4042 -1.90189 0.692939)
(56.4644 -2.37869 0.367777)
(62.2486 -2.35065 0.0288813)
(67.3782 -2.16025 -0.0287846)
(72.3458 -2.26998 0.171746)
(77.4749 -1.37315 0.046891)
(77.9022 0.114006 0.00628175)
(75.9661 1.83952 0.319722)
(68.5486 4.45355 1.34697)
(49.1351 3.61035 -0.771735)
(39.1343 -0.294874 -2.77995)
(36.6072 1.4846 -2.92687)
(35.4062 0.922888 -3.6558)
(35.521 0.75786 -3.87609)
(35.8205 0.493086 -4.28861)
(36.7585 0.265872 -4.24949)
(37.9788 0.100033 -3.64345)
(39.683 -0.16621 -2.92647)
(41.8882 -0.61121 -2.29779)
(44.6038 -1.22472 -1.95646)
(48.4017 -1.79582 -2.13389)
(52.8842 -1.78472 -2.49856)
(58.0474 -2.66102 -1.855)
(65.7282 -2.79798 -1.48537)
(69.0939 -0.624309 -2.18636)
(68.1469 1.11699 -2.40695)
(64.9572 2.69669 -3.1473)
(56.0088 4.22362 -2.83606)
(44.157 1.65023 -0.427935)
(40.6881 0.154763 0.634739)
(40.8113 -0.00880502 0.708677)
(41.7876 -0.373096 0.756851)
(43.5448 -0.487605 0.77355)
(45.6238 -0.361899 0.829497)
(47.5864 -0.0930633 1.09595)
(48.9055 0.215705 1.21955)
(50.5408 0.121823 1.16736)
(52.0396 3.98373 0.448876)
(50.1099 1.84355 0.489497)
(49.0425 -0.189077 0.688095)
(49.3348 -1.09927 0.736531)
(49.9281 -1.28022 0.548741)
(50.7447 -0.319537 -0.943025)
(50.8287 0.290271 -1.57164)
(50.5165 -0.138689 -1.03613)
(50.59 -0.688462 -0.730712)
(50.9104 -0.49025 -0.340576)
(50.9111 0.157757 -0.03845)
(50.5438 0.835556 0.00235248)
(49.7803 1.30213 0.117029)
(48.5568 0.884061 0.756273)
(47.2866 0.44243 1.94031)
(46.4263 0.00424533 1.95683)
(46.3261 -0.22636 1.78926)
(46.5095 -0.463042 1.65884)
(46.8313 -1.02321 1.56627)
(47.6125 -1.60277 1.64062)
(49.2262 -0.82701 0.230779)
(49.4518 1.05127 -0.642359)
(48.9331 1.95038 -0.896152)
(47.5291 3.27665 -1.13421)
(44.8956 3.33446 -0.939722)
(42.6676 0.954557 -0.295478)
(42.559 -0.293176 -0.108926)
(42.9195 -0.904377 0.0597173)
(44.1233 -1.94633 0.247054)
(46.9459 -4.85858 0.800499)
(51.4319 -6.88375 1.03791)
(56.2362 -3.1425 0.386142)
(56.2746 0.337535 0.228186)
(54.8414 2.19439 0.170549)
(51.3645 4.24387 0.052157)
(47.9806 3.98501 -0.27091)
(44.2952 3.82232 -0.459752)
(42.1006 1.30697 -0.423266)
(42.2559 0.802537 -0.373524)
(43.2714 -0.373758 -0.218689)
(45.742 -2.03902 0.0502879)
(49.0001 -3.038 0.164763)
(52.8038 -3.00524 -0.20396)
(55.0807 -2.36839 -0.700129)
(54.5182 -1.6558 -0.734318)
(52.8401 -0.934002 -0.288479)
(51.4052 0.205971 0.0754325)
(51.4028 0.375054 0.0741813)
(52.2265 -0.11753 -0.0371459)
(54.261 0.2041 0.112227)
(54.5989 1.30572 0.34908)
(53.2738 2.1671 0.438403)
(48.4875 3.89508 0.166821)
(43.0437 3.12725 -0.174756)
(38.7444 3.72906 0.167263)
(36.5051 1.91152 0.669369)
(36.1355 1.37858 0.826036)
(36.4674 1.03546 0.854447)
(37.6848 0.642946 0.919669)
(39.3482 0.250909 0.731087)
(41.344 -0.342425 0.46713)
(44.1672 -0.667336 0.431935)
(47.398 -1.03047 0.391466)
(51.293 -1.81247 0.178095)
(56.6985 -2.56873 0.0787584)
(62.7706 -2.76712 0.441909)
(67.8167 -2.8303 0.0236067)
(72.045 -2.62986 -0.942609)
(77.027 -1.29092 -0.605448)
(77.6378 0.466355 -0.31753)
(76.0342 1.80264 -0.0547099)
(71.1266 4.63391 1.11697)
(54.2222 5.69384 -0.543626)
(39.1201 0.570254 -2.25111)
(35.7267 1.78092 -2.72572)
(34.7073 0.769024 -3.30862)
(34.7481 0.716922 -3.56117)
(35.055 0.666651 -4.05896)
(35.9845 0.695219 -4.11596)
(37.2533 0.467495 -3.59888)
(39.0771 -0.1089 -2.80394)
(41.4719 -0.549407 -1.82867)
(44.3375 -1.11827 -1.09803)
(48.19 -1.3345 -1.36091)
(52.2178 -1.78907 -1.29253)
(56.7105 -3.51973 0.991634)
(62.7714 -3.19096 2.69286)
(67.5907 -1.08251 0.320619)
(67.1028 1.02641 -0.405038)
(64.2156 2.32357 -1.45437)
(57.4153 4.2824 -1.96976)
(45.8594 2.2669 -0.347709)
(40.8657 -0.100753 0.766704)
(41.0918 -0.358122 0.881617)
(42.2486 -0.513883 0.92308)
(44.0152 -0.516424 0.876116)
(45.9755 -0.496216 0.920445)
(47.3783 -0.242141 0.946458)
(48.6885 -0.0480411 0.951516)
(50.3252 -0.0980244 0.912072)
(49.3971 3.48618 -1.03422)
(49.7672 3.75196 0.136929)
(49.6032 1.49933 1.36884)
(49.7541 -0.0869599 1.96663)
(50.3945 -0.821351 2.12962)
(51.3649 -1.05951 1.83444)
(52.4436 -0.656563 1.84966)
(52.7939 -0.379994 1.72978)
(53.1044 -0.264795 1.57087)
(53.3929 0.101488 0.987427)
(53.1038 0.705114 1.00668)
(52.0235 1.76463 0.425334)
(50.3451 2.61467 -0.827785)
(48.6724 2.25104 0.273671)
(47.6947 1.3932 1.77828)
(47.1957 0.795611 1.64884)
(46.8275 0.333104 1.08987)
(46.936 0.00985364 0.954578)
(47.402 -0.565183 1.08181)
(48.443 -1.23761 1.49336)
(50.1478 -0.461686 0.0803023)
(50.2444 0.99846 -0.607855)
(49.5532 2.30185 -0.959532)
(47.875 3.99102 -1.44342)
(45.4762 3.86342 -1.2685)
(42.8823 1.73184 -0.282151)
(42.405 0.152951 0.19894)
(42.7844 -0.410314 0.348946)
(44.0319 -0.970919 0.563076)
(47.4261 -3.16664 0.970316)
(51.2644 -7.99984 1.51891)
(57.72 -7.10698 1.13749)
(59.6098 -1.1521 0.608677)
(57.5952 2.16988 0.475647)
(52.3711 4.91797 0.100116)
(47.7287 4.87155 -0.206308)
(43.9525 5.0333 -0.212163)
(41.6912 2.22196 -0.109978)
(41.7986 1.58263 -0.0743767)
(42.8639 0.288849 0.00534137)
(45.7448 -1.59678 0.164151)
(49.7666 -2.9257 0.283812)
(53.9042 -2.79052 0.187838)
(57.4704 -2.74104 -0.023582)
(58.5802 -2.75097 -0.14901)
(56.6056 -1.80603 -0.177944)
(52.3816 -0.476359 -0.084048)
(51.4863 -0.0049882 -0.0202604)
(52.0653 0.152722 8.4652e-05)
(54.3103 0.492423 0.0969334)
(55.3895 1.89333 0.215221)
(54.2336 2.66546 0.179513)
(49.8248 4.54254 -0.0344527)
(42.8986 4.02916 -0.00179405)
(38.1073 4.1957 0.324016)
(36.0704 2.1949 0.458218)
(35.7654 1.41555 0.456525)
(36.1074 0.95074 0.427279)
(37.3285 0.34452 0.388784)
(38.9519 0.0792016 0.168844)
(41.1074 -0.54062 -0.0171822)
(43.9525 -1.01385 -0.378039)
(47.0688 -1.46834 -0.400501)
(50.6635 -2.69675 -0.86055)
(55.4721 -3.94276 -0.476821)
(60.6576 -4.2586 0.910657)
(65.0818 -3.74052 0.117287)
(68.4857 -3.96848 -2.11712)
(72.6961 -2.26771 -2.04938)
(74.5733 0.511243 -0.854193)
(73.3028 2.05834 -0.476725)
(69.6511 5.10229 0.497065)
(57.0047 6.53728 -0.297588)
(39.8775 1.76223 -1.85624)
(34.8759 1.68275 -2.55105)
(33.7552 1.33579 -2.83389)
(33.8555 1.24923 -2.95592)
(34.2334 1.02767 -3.16328)
(35.3132 0.707112 -3.22691)
(36.7042 0.442046 -3.15479)
(38.6102 0.152509 -2.77387)
(40.9672 -0.352963 -2.07642)
(43.4929 -1.39614 -1.10266)
(46.8012 -2.60563 -0.460976)
(50.1819 -3.23132 -0.263514)
(54.0726 -4.16051 0.208638)
(58.9262 -3.72652 1.14096)
(64.1995 -1.07154 0.786981)
(64.4389 1.24927 0.414823)
(62.3981 2.85408 -0.200392)
(57.2615 5.31779 -0.745954)
(48.735 3.70004 -0.272772)
(42.9355 0.182852 0.499642)
(42.6361 -0.152985 0.616287)
(43.3667 -0.565932 0.597621)
(44.812 -0.747357 0.535647)
(46.3651 -0.455005 0.550228)
(47.9562 -0.205066 0.430642)
(49.1056 0.32525 0.420146)
(50.5549 0.229727 0.463086)
(50.9953 0.28357 0.731435)
(50.7371 0.933895 0.978545)
(50.1434 0.374044 1.13303)
(49.1715 -1.38772 1.45732)
(49.3219 -2.03409 1.90561)
(49.4048 -1.35155 2.08862)
(49.5249 -0.504468 1.87037)
(49.9083 -0.592709 1.81278)
(50.6171 -1.2157 2.02115)
(52.0231 -0.625502 1.79585)
(52.3278 0.657989 1.59438)
(51.72 1.78411 1.39632)
(50.4539 2.21367 0.936633)
(49.5359 1.64927 0.949261)
(49.4035 0.762174 1.14532)
(49.3441 0.215587 1.31811)
(49.2343 -0.126831 1.5379)
(49.0755 -0.732982 2.05602)
(49.3166 -1.75794 2.47299)
(49.8768 -2.69036 3.26979)
(51.3004 -1.87504 2.93587)
(52.0191 1.29981 1.83292)
(51.4472 2.60117 1.4257)
(49.5207 4.39093 0.691122)
(46.865 4.71146 0.39221)
(44.0763 2.413 0.623215)
(42.9476 0.0398891 0.942304)
(43.0712 -0.177025 0.967413)
(44.3365 -0.422018 0.982984)
(48.1039 -1.91237 0.989912)
(53.677 -5.59297 0.879413)
(61.636 -7.48871 0.830945)
(68.7297 -4.53993 0.656718)
(67.3548 0.835085 0.636319)
(58.5113 6.0766 0.507308)
(47.8211 4.97274 -0.0709618)
(42.6928 5.43173 -0.45663)
(40.5569 2.61684 -0.558961)
(40.8209 2.01049 -0.554454)
(42.2564 0.737928 -0.477519)
(45.4882 -1.12302 -0.264025)
(49.5117 -2.26022 -0.0136227)
(53.8457 -2.53853 0.0966186)
(58.0083 -2.55155 0.00287008)
(60.8143 -3.40993 -0.0777249)
(60.8518 -3.04745 -0.0678959)
(58.5858 -1.21593 0.100275)
(55.1914 -1.22658 0.527177)
(54.7678 -0.519572 0.672975)
(55.8509 0.641438 0.656743)
(56.1219 2.33435 0.59103)
(55.1346 2.91897 0.528062)
(50.7761 4.90477 0.281612)
(42.5409 4.78547 0.178134)
(37.2971 4.81802 0.477312)
(35.3655 2.84825 0.542513)
(34.9643 2.44605 0.497848)
(35.2128 2.06321 0.454075)
(36.5012 1.55412 0.467047)
(38.2038 0.956865 0.0863636)
(40.2094 0.155172 0.00894468)
(43.0188 -0.518204 -0.0738954)
(45.7844 -1.34449 0.145299)
(48.4567 -3.11584 -0.749288)
(52.7066 -4.66281 -1.23143)
(57.794 -5.20002 0.171523)
(61.9944 -4.85683 -0.508427)
(64.9931 -3.95108 -3.28014)
(68.4503 -1.78631 -3.19322)
(69.9899 0.65696 -1.27596)
(69.2076 2.27322 -0.877421)
(66.7465 5.28931 0.0328883)
(57.8102 7.34114 0.148077)
(41.7401 3.78353 -1.58687)
(34.5379 1.64147 -2.64418)
(33.1468 1.30841 -2.8455)
(33.2298 1.30077 -2.89546)
(33.6726 1.24247 -2.93955)
(34.6638 1.14139 -2.74896)
(35.8206 0.935715 -2.32191)
(37.5537 0.277001 -1.6123)
(39.7789 -0.484033 -0.713374)
(41.9363 -1.6928 0.0636628)
(44.4318 -2.83635 0.430121)
(47.1628 -3.8047 0.496283)
(50.8718 -4.73174 0.297954)
(55.5075 -4.45167 0.245923)
(60.5612 -1.32416 0.399673)
(61.1692 1.78862 0.3832)
(59.4858 3.25587 0.144559)
(55.7327 5.2991 -0.254211)
(50.2973 4.03663 -0.0438028)
(44.8021 0.700661 0.328432)
(44.0153 -0.693377 0.421783)
(44.4105 -0.871892 0.412071)
(45.2617 -0.898502 0.372172)
(46.4842 -0.814571 0.270711)
(47.6685 -0.306305 0.193952)
(48.8539 0.365099 0.124993)
(49.5352 -0.00624672 0.183114)
(48.3695 1.57076 -1.79447)
(47.3935 3.25633 -1.03981)
(46.8433 2.84985 -0.745003)
(47.2758 1.49025 -0.895895)
(47.9928 0.311873 -1.04621)
(48.2696 -0.696018 -0.908764)
(47.7808 -0.920782 -0.516186)
(47.8942 -0.845619 -0.106676)
(48.578 -1.16179 0.233348)
(49.7378 -1.11342 0.50308)
(50.8154 0.981703 1.084)
(50.1323 2.85624 1.24327)
(48.9387 3.61288 1.23578)
(48.0607 2.61808 1.27021)
(47.8264 1.46657 1.32141)
(47.9708 1.02651 1.27744)
(47.9847 0.896688 1.21374)
(47.6353 0.835947 1.08279)
(48.186 0.318947 0.923588)
(49.6534 -1.98452 0.737459)
(52.4802 -3.09842 0.782597)
(55.2033 1.116 0.885898)
(54.5081 3.93062 0.900268)
(51.5762 7.17655 0.748135)
(48.2822 6.29918 0.540155)
(45.4309 3.74378 0.494151)
(42.8193 1.56444 0.623675)
(42.3048 1.14062 0.694897)
(43.5727 1.19663 0.721487)
(47.8229 -0.373238 0.760625)
(54.4038 -4.37286 0.694771)
(62.8323 -6.71437 0.500659)
(72.895 -5.90349 0.521373)
(72.983 -0.821639 0.614836)
(66.5055 5.34427 0.671414)
(49.8722 7.5588 -0.011173)
(41.318 4.96587 -0.274396)
(39.1852 3.59602 -0.189858)
(39.4228 2.74735 -0.139156)
(40.9803 1.38512 -0.0208915)
(44.4728 -0.562411 0.147433)
(49.1142 -1.87624 0.259475)
(53.8452 -2.35127 0.211311)
(58.0623 -2.71736 0.0934053)
(60.5727 -3.62263 0.044041)
(61.4323 -3.80545 0.0776919)
(60.9268 -1.79888 0.136528)
(59.3015 -1.43096 0.19539)
(59.3662 -1.28982 0.189988)
(59.0062 0.416007 0.224027)
(58.2411 2.33284 0.273283)
(56.58 3.6983 0.216221)
(51.1433 5.98763 0.108907)
(41.6127 6.08238 0.348762)
(36.4726 5.00428 0.477497)
(34.6344 3.22572 0.394997)
(34.3362 2.69629 0.291174)
(34.6776 2.19699 0.259853)
(35.9887 1.40782 0.318927)
(37.5488 1.1594 -0.00907939)
(39.4883 -0.112157 0.271398)
(41.7629 -1.18866 0.593483)
(43.6298 -2.09749 -0.265023)
(45.5943 -4.02164 -1.49105)
(50.3928 -5.77029 -1.88628)
(56.7728 -6.3571 -0.28197)
(61.5702 -5.86853 -0.718405)
(63.5976 -5.55151 -3.27796)
(65.0402 -3.50236 -2.66609)
(65.6913 1.32629 -1.18107)
(65.1861 2.87134 -0.804173)
(63.3078 5.88386 -0.0672432)
(55.8438 7.41146 0.138704)
(41.6323 5.0428 -1.685)
(34.4181 2.0152 -2.35655)
(32.52 1.8986 -2.40311)
(32.5734 1.79646 -2.44812)
(32.9163 1.67064 -2.49675)
(33.9365 1.44513 -2.17976)
(35.0989 1.20862 -1.53637)
(36.627 0.293554 -0.757599)
(38.4154 -0.664718 0.00109175)
(39.6014 -2.59425 0.385841)
(41.3425 -3.8564 0.479147)
(44.0615 -4.54629 0.55177)
(48.1178 -5.38599 0.664174)
(52.5621 -4.81054 0.803295)
(57.391 -1.34796 0.719813)
(58.1833 2.10853 0.581562)
(56.6613 3.78717 0.445775)
(53.5698 6.11307 0.106923)
(49.257 4.86469 0.122646)
(44.6103 1.10601 0.307573)
(43.9042 -0.27059 0.351805)
(44.4129 -0.801683 0.360192)
(45.087 -0.917477 0.367661)
(45.7651 -0.66522 0.346818)
(46.4764 -0.414469 0.296851)
(47.4202 0.256126 0.188829)
(48.045 0.239508 0.184624)
(29.0219 1.9126 -0.493476)
(29.4839 8.75807 -0.521812)
(31.346 9.27329 -0.556078)
(32.4754 8.08316 -0.553845)
(32.6708 4.6411 -0.280037)
(31.3052 -0.181893 0.122787)
(28.7073 -0.254908 0.484019)
(29.2046 0.100293 0.548469)
(31.1473 -2.44987 0.525182)
(35.1422 -5.72629 0.622547)
(41.065 -5.50431 0.922976)
(43.9013 2.33897 1.26537)
(43.9299 3.46097 1.29615)
(43.1344 3.13319 1.26451)
(42.66 2.16015 1.22081)
(43.3962 2.00614 1.11724)
(44.1372 2.40723 0.910212)
(43.5608 2.41283 0.758402)
(44.02 2.05468 0.619103)
(45.5553 -1.69613 0.468035)
(48.1374 -5.41762 0.389438)
(54.8593 -5.40347 0.416247)
(58.6633 1.12631 0.512584)
(56.1541 5.62599 0.496313)
(51.6747 6.51549 0.315554)
(46.571 5.39863 0.318768)
(41.8617 2.76659 0.566587)
(40.6735 2.60421 0.707387)
(41.8006 2.47086 0.740119)
(46.4198 1.09857 0.755337)
(54.0796 -3.42292 0.479394)
(60.5401 -9.79556 0.0224496)
(71.1263 -7.74015 0.0455504)
(73.8369 -1.92383 0.208534)
(69.4845 4.51434 0.320584)
(52.2343 11.6315 0.118292)
(40.0431 5.15153 -0.265994)
(37.528 3.97065 -0.389653)