/*--------------------------------*- C++ -*----------------------------------*\
| =========                 |                                                 |
| \\      /  F ield         | OpenFOAM: The Open Source CFD Toolbox           |
|  \\    /   O peration     | Version:  2.3.0                                 |
|   \\  /    A nd           | Web:      www.OpenFOAM.org                      |
|    \\/     M anipulation  |                                                 |
\*---------------------------------------------------------------------------*/
FoamFile
{
    version     2.0;
    format      ascii;
    class       volScalarField;
    location    "0.05";
    object      varZ;
}
// * * * * * * * * * * * * * * * * * * * * * * * * * * * * * * * * * * * * * //

dimensions      [0 0 0 0 0 0 0];

internalField   nonuniform List<scalar> 
5000
(
3.39287e-26
4.02736e-26
1.23817e-25
4.70813e-25
1.40012e-24
3.29692e-24
6.82312e-24
1.27304e-23
1.99116e-23
2.62629e-23
3.26294e-23
4.14862e-23
6.44715e-23
1.51696e-22
4.85325e-22
1.79273e-21
7.00589e-21
2.71851e-20
1.01421e-19
3.56295e-19
1.20995e-18
4.03215e-18
1.34146e-17
4.60822e-17
1.756e-16
7.35872e-16
3.28726e-15
1.44896e-14
5.29705e-14
1.25269e-13
1.52918e-13
1.84078e-13
5.01541e-13
1.72905e-12
5.61782e-12
1.59639e-11
3.88522e-11
8.04766e-11
1.39797e-10
1.86127e-10
1.78668e-10
1.31105e-10
8.86328e-11
6.82603e-11
7.67479e-11
1.21174e-10
2.04345e-10
3.00777e-10
3.61352e-10
4.2249e-10
6.3253e-10
1.25856e-09
2.68214e-09
5.634e-09
1.24497e-08
3.01714e-08
7.19044e-08
1.5389e-07
2.90144e-07
5.00993e-07
8.16394e-07
1.26581e-06
1.84705e-06
2.47852e-06
3.04755e-06
3.46472e-06
3.30468e-06
2.64314e-06
1.9296e-06
1.34016e-06
8.75606e-07
5.59221e-07
3.32385e-07
1.70842e-07
1.53572e-07
1.68874e-07
2.02919e-07
2.58876e-07
3.42306e-07
4.68122e-07
6.42908e-07
8.42899e-07
1.02044e-06
1.20811e-06
1.44019e-06
1.71253e-06
2.0377e-06
2.45089e-06
2.84051e-06
2.77918e-06
2.29388e-06
1.44711e-06
9.82819e-07
9.45474e-07
9.73913e-07
1.04702e-06
1.15334e-06
1.28328e-06
1.42763e-06
1.58543e-06
2.48225e-23
2.03149e-23
2.72579e-23
8.06027e-23
2.10707e-22
4.56706e-22
7.98669e-22
1.2478e-21
1.59891e-21
1.6689e-21
1.79166e-21
2.32488e-21
4.22994e-21
1.11156e-20
3.56181e-20
1.24528e-19
4.62705e-19
1.77202e-18
6.65697e-18
2.25782e-17
7.38585e-17
2.46503e-16
8.37302e-16
3.00664e-15
1.21997e-14
5.3989e-14
2.53469e-13
1.20005e-12
4.59693e-12
1.09334e-11
1.19005e-11
8.28256e-12
1.36835e-11
4.3852e-11
1.49885e-10
4.64398e-10
1.24608e-09
2.82703e-09
5.30933e-09
7.3794e-09
6.99446e-09
4.8697e-09
3.082e-09
2.20513e-09
2.37874e-09
3.91528e-09
7.16521e-09
1.12939e-08
1.29447e-08
1.14773e-08
1.02052e-08
1.16014e-08
1.92875e-08
3.64244e-08
7.32207e-08
1.76561e-07
4.132e-07
8.42306e-07
1.49859e-06
2.44982e-06
3.85902e-06
5.98541e-06
8.91759e-06
1.25874e-05
1.7026e-05
2.23499e-05
2.65978e-05
2.68482e-05
2.41507e-05
1.624e-05
9.04261e-06
4.63428e-06
1.67057e-06
6.5782e-07
6.03694e-07
6.44858e-07
7.65437e-07
1.00772e-06
1.41642e-06
2.05724e-06
2.95545e-06
3.93716e-06
4.60953e-06
4.92434e-06
5.19783e-06
5.59696e-06
6.0847e-06
6.58523e-06
6.67586e-06
6.25279e-06
5.09288e-06
3.39365e-06
3.02516e-06
3.18679e-06
3.67577e-06
4.27854e-06
4.70426e-06
4.96776e-06
5.20443e-06
5.64546e-06
2.60441e-21
4.48422e-21
1.06177e-20
3.14863e-20
6.91416e-20
1.14035e-19
2.01052e-19
3.06622e-19
3.72258e-19
3.28227e-19
2.59154e-19
2.45583e-19
3.3182e-19
6.5143e-19
1.80994e-18
6.47382e-18
2.55735e-17
1.00377e-16
3.83185e-16
1.33063e-15
4.3795e-15
1.47453e-14
5.13828e-14
1.93773e-13
8.14306e-13
3.64316e-12
1.65331e-11
6.99722e-11
2.38618e-10
5.32829e-10
5.70639e-10
3.40428e-10
3.20429e-10
7.67654e-10
2.33677e-09
6.96192e-09
2.29291e-08
6.03562e-08
1.21008e-07
1.80658e-07
1.75577e-07
1.23367e-07
7.79414e-08
5.48977e-08
5.67733e-08
9.12118e-08
1.71088e-07
3.04559e-07
3.70355e-07
3.07139e-07
2.28984e-07
1.63592e-07
1.32266e-07
1.51166e-07
2.36131e-07
5.20498e-07
1.21552e-06
2.50764e-06
4.49025e-06
7.23142e-06
1.07838e-05
1.50966e-05
2.00977e-05
2.56419e-05
3.16625e-05
3.82674e-05
4.56893e-05
5.47476e-05
5.99751e-05
5.75279e-05
4.1756e-05
1.70361e-05
4.49507e-06
1.93854e-06
1.83516e-06
1.98411e-06
2.426e-06
3.27774e-06
4.74753e-06
7.11872e-06
1.05036e-05
1.43642e-05
1.73284e-05
1.8789e-05
1.99829e-05
2.29482e-05
2.48834e-05
2.37263e-05
2.07496e-05
1.64912e-05
1.09332e-05
7.28097e-06
7.21301e-06
8.13023e-06
1.02462e-05
1.28115e-05
1.48899e-05
1.63841e-05
1.72987e-05
1.88086e-05
2.78089e-19
1.22807e-18
5.9947e-18
2.10664e-17
5.31622e-17
5.64796e-17
5.35605e-17
5.20707e-17
4.46484e-17
3.15615e-17
2.415e-17
2.63213e-17
3.92528e-17
6.79179e-17
1.31276e-16
3.12301e-16
9.5887e-16
3.39497e-15
1.24699e-14
4.01789e-14
1.24253e-13
4.20595e-13
1.505e-12
5.92283e-12
2.57561e-11
1.15438e-10
4.97863e-10
1.97952e-09
6.47429e-09
1.45217e-08
1.6152e-08
9.26268e-09
5.36413e-09
5.22044e-09
1.05677e-08
2.78756e-08
9.37323e-08
3.23484e-07
1.13923e-06
2.73777e-06
2.85564e-06
2.09705e-06
1.35835e-06
8.75983e-07
5.55312e-07
5.47258e-07
8.45692e-07
2.34689e-06
4.63167e-06
4.55366e-06
3.57848e-06
2.32264e-06
1.21952e-06
6.27884e-07
7.22145e-07
1.42349e-06
3.13732e-06
5.96169e-06
9.69048e-06
1.40548e-05
1.89886e-05
2.4435e-05
3.03907e-05
3.6829e-05
4.37397e-05
5.12921e-05
5.95954e-05
6.93349e-05
8.37365e-05
9.09129e-05
8.27596e-05
4.89623e-05
1.37617e-05
4.68436e-06
4.36118e-06
5.04377e-06
6.69548e-06
9.16649e-06
1.24052e-05
1.66727e-05
2.22238e-05
2.87963e-05
3.54847e-05
4.13936e-05
4.816e-05
6.16853e-05
7.46801e-05
7.22329e-05
6.26633e-05
4.5899e-05
2.53268e-05
1.39997e-05
1.34027e-05
1.46734e-05
1.80486e-05
2.27371e-05
2.75654e-05
3.22097e-05
3.61225e-05
4.07821e-05
2.87933e-17
3.23929e-16
2.90527e-15
1.2682e-14
2.13984e-14
1.70455e-14
1.10893e-14
7.48817e-15
5.03656e-15
3.03179e-15
2.38006e-15
2.99997e-15
5.05161e-15
8.91225e-15
1.51731e-14
2.73293e-14
6.45705e-14
2.05696e-13
7.43543e-13
1.50764e-12
2.68113e-12
7.59843e-12
2.59595e-11
1.02549e-10
4.54184e-10
2.03605e-09
8.59694e-09
3.30735e-08
1.08882e-07
2.65011e-07
3.16902e-07
1.86104e-07
9.73094e-08
5.66815e-08
5.35769e-08
1.00722e-07
3.09087e-07
1.05535e-06
3.38066e-06
8.65121e-06
1.44864e-05
1.43409e-05
1.08757e-05
5.74277e-06
2.89411e-06
2.05138e-06
2.44534e-06
4.81442e-06
1.09863e-05
1.58508e-05
1.50371e-05
1.08419e-05
4.9893e-06
1.78836e-06
1.75086e-06
2.88944e-06
5.87683e-06
1.05721e-05
1.635e-05
2.26115e-05
2.92988e-05
3.64455e-05
4.42413e-05
5.30392e-05
6.30199e-05
7.43699e-05
8.72451e-05
0.000100742
0.000116326
0.000129479
0.000125317
9.5248e-05
3.56153e-05
9.48457e-06
7.75316e-06
9.00218e-06
1.22614e-05
1.68679e-05
2.21795e-05
2.83826e-05
3.62201e-05
4.65139e-05
5.97957e-05
7.50891e-05
9.24689e-05
0.000119626
0.000145945
0.000145389
0.000134513
0.000106646
6.09551e-05
2.86366e-05
2.42334e-05
2.55142e-05
2.97987e-05
3.65062e-05
4.40133e-05
5.19118e-05
5.96861e-05
7.16462e-05
5.29992e-15
5.07978e-14
4.64598e-13
1.59401e-12
2.36319e-12
1.67639e-12
9.19453e-13
5.83554e-13
4.5181e-13
2.93732e-13
2.47754e-13
3.14318e-13
5.34455e-13
9.65748e-13
1.63578e-12
2.81331e-12
6.05052e-12
1.86546e-11
5.58259e-11
9.39233e-11
9.45086e-11
1.73047e-10
4.92527e-10
1.78038e-09
7.2645e-09
2.88983e-08
9.58434e-08
2.91304e-07
1.0068e-06
3.27504e-06
4.74555e-06
2.89923e-06
1.52461e-06
7.87754e-07
4.45628e-07
3.87536e-07
6.76603e-07
1.86615e-06
5.35279e-06
1.24637e-05
2.36572e-05
3.25507e-05
3.20949e-05
2.63478e-05
1.45963e-05
6.92976e-06
5.95667e-06
7.53379e-06
1.33787e-05
2.44367e-05
2.91207e-05
2.60029e-05
1.55065e-05
5.2046e-06
3.70975e-06
5.16208e-06
9.52834e-06
1.64166e-05
2.46333e-05
3.32573e-05
4.24912e-05
5.269e-05
6.4438e-05
7.89776e-05
9.65919e-05
0.000115641
0.000134932
0.000151519
0.000165029
0.000175654
0.000172608
0.000148649
7.57095e-05
1.89268e-05
1.14804e-05
1.26009e-05
1.6555e-05
2.27986e-05
3.02171e-05
3.90418e-05
5.09119e-05
6.81519e-05
9.31773e-05
0.000124589
0.00015303
0.000173907
0.000186872
0.000189478
0.000185487
0.000169498
0.00011878
5.9905e-05
4.24e-05
4.28819e-05
4.69831e-05
5.46418e-05
6.39878e-05
7.43589e-05
8.48114e-05
0.000104246
4.53095e-13
4.94895e-12
3.89399e-11
1.36557e-10
2.26062e-10
1.77894e-10
9.70585e-11
6.50167e-11
5.92002e-11
3.83072e-11
2.75906e-11
2.80869e-11
4.13675e-11
7.26215e-11
1.262e-10
2.2681e-10
4.87889e-10
1.3671e-09
3.60284e-09
5.84512e-09
4.59046e-09
4.52085e-09
8.01025e-09
2.24947e-08
6.94764e-08
1.76823e-07
4.26575e-07
1.13385e-06
3.97559e-06
1.39702e-05
3.51921e-05
3.18892e-05
1.84855e-05
9.81756e-06
5.14823e-06
2.17285e-06
1.68281e-06
2.91579e-06
6.97288e-06
1.5029e-05
2.74886e-05
4.39236e-05
5.77217e-05
5.87995e-05
5.15179e-05
3.05159e-05
1.57408e-05
1.50953e-05
1.868e-05
2.83297e-05
4.17593e-05
4.19691e-05
3.2153e-05
1.35495e-05
7.09852e-06
8.4103e-06
1.35653e-05
2.25745e-05
3.3839e-05
4.60139e-05
5.96153e-05
7.53856e-05
9.43763e-05
0.000117911
0.000144116
0.000165839
0.000179939
0.000187547
0.000193311
0.000201929
0.000200564
0.00018455
0.000124802
3.6748e-05
1.66663e-05
1.73043e-05
2.19443e-05
3.01384e-05
4.02855e-05
5.28902e-05
7.09847e-05
9.91064e-05
0.000138994
0.000175765
0.000191872
0.000189812
0.000188963
0.000194443
0.000197476
0.000191846
0.000167021
0.000110076
7.69727e-05
7.43941e-05
7.68898e-05
8.27166e-05
9.07138e-05
0.000100832
0.000111895
0.000134659
1.91779e-11
2.41581e-10
1.87307e-09
7.36441e-09
1.47181e-08
1.55411e-08
1.06208e-08
8.03713e-09
7.8544e-09
4.90007e-09
3.0854e-09
2.40477e-09
2.6537e-09
4.00121e-09
6.67423e-09
1.18776e-08
2.44494e-08
6.14917e-08
1.47516e-07
2.4429e-07
1.99264e-07
1.43772e-07
1.33002e-07
1.94658e-07
3.90594e-07
7.82434e-07
1.56847e-06
3.60428e-06
1.04385e-05
3.0189e-05
7.52058e-05
0.000143254
0.000141168
8.8723e-05
3.222e-05
9.90308e-06
4.07509e-06
4.9198e-06
9.05553e-06
1.80685e-05
3.23976e-05
5.18751e-05
7.68734e-05
0.000103095
0.000108756
9.60774e-05
5.73164e-05
3.54911e-05
3.53713e-05
4.06482e-05
5.38538e-05
5.84999e-05
5.06206e-05
2.6309e-05
1.21879e-05
1.28729e-05
1.83837e-05
2.9464e-05
4.4377e-05
6.13389e-05
8.12957e-05
0.000105021
0.000132645
0.000161921
0.000186894
0.000199735
0.000200017
0.000197556
0.000197455
0.000203798
0.000207552
0.000198302
0.00016136
6.36062e-05
2.34296e-05
2.27748e-05
2.74856e-05
3.76595e-05
5.15568e-05
7.03344e-05
9.90151e-05
0.000142273
0.00018649
0.000196998
0.000190388
0.000165781
0.000149218
0.000154668
0.000173247
0.000186358
0.000180602
0.000156862
0.000129313
0.000116527
0.000116193
0.000117549
0.000121237
0.00012846
0.000138353
0.000161011
1.26022e-09
1.18652e-08
6.81077e-08
2.60241e-07
6.30502e-07
8.72076e-07
7.88963e-07
7.97032e-07
9.59957e-07
7.00881e-07
3.93006e-07
2.40903e-07
1.78995e-07
1.87177e-07
2.55355e-07
3.98326e-07
7.09814e-07
1.49925e-06
3.39278e-06
6.35674e-06
6.66054e-06
4.5135e-06
3.09426e-06
2.35662e-06
2.46433e-06
3.41779e-06
5.43465e-06
1.03812e-05
2.3454e-05
5.53458e-05
0.000119119
0.000216496
0.000292524
0.000275813
0.000167793
4.33917e-05
9.56874e-06
8.713e-06
1.28465e-05
2.43863e-05
4.44448e-05
7.21041e-05
0.00010614
0.000147033
0.000172967
0.000169966
0.000142235
9.81639e-05
7.75278e-05
7.38357e-05
7.72867e-05
7.96418e-05
7.13946e-05
4.11085e-05
1.87089e-05
1.85661e-05
2.43963e-05
3.79048e-05
5.73851e-05
8.07465e-05
0.000109134
0.00014139
0.00017286
0.000201441
0.000222986
0.000225202
0.000220489
0.000205715
0.000186689
0.000187271
0.000196832
0.00019398
0.000171775
8.84762e-05
3.16699e-05
2.87957e-05
3.4096e-05
4.73722e-05
6.75967e-05
9.72396e-05
0.000142832
0.000192718
0.000203227
0.000194594
0.000165599
0.000132184
0.000123999
0.000126885
0.00014034
0.000168587
0.000180033
0.000176059
0.000168785
0.000156382
0.000147869
0.000147051
0.000148179
0.00015262
0.000160266
0.000179398
1.43198e-07
5.32038e-07
2.16746e-06
6.79797e-06
1.98415e-05
4.11548e-05
5.05072e-05
5.10063e-05
6.31572e-05
5.92102e-05
3.43591e-05
1.90364e-05
1.20668e-05
9.41013e-06
1.04564e-05
1.35622e-05
1.90574e-05
2.95134e-05
5.07952e-05
9.6688e-05
0.000154312
0.000132302
8.02107e-05
3.95849e-05
1.80508e-05
1.47864e-05
1.82395e-05
2.88877e-05
5.29518e-05
0.000106699
0.000206946
0.000310303
0.000349475
0.000341002
0.000293188
0.000127051
2.47852e-05
1.61811e-05
2.08408e-05
3.71416e-05
6.76777e-05
0.000109819
0.000156709
0.000199276
0.000216976
0.00021446
0.000195414
0.00016855
0.000154359
0.000139291
0.000126698
0.000118222
9.99892e-05
5.66519e-05
2.5989e-05
2.50821e-05
3.1329e-05
4.73764e-05
7.19974e-05
0.000102437
0.000139892
0.000180021
0.000212276
0.00024753
0.000292585
0.000305966
0.000295625
0.000256669
0.000194017
0.000174755
0.000180832
0.00018434
0.000166035
9.3889e-05
3.77111e-05
3.49878e-05
4.22808e-05
6.0705e-05
9.01855e-05
0.000135387
0.000194253
0.000213575
0.0002043
0.000170931
0.000135501
0.000119583
0.000117489
0.000119035
0.000125329
0.000146905
0.00017333
0.000180762
0.000179349
0.000174337
0.000166243
0.000163664
0.000164143
0.000166967
0.000172588
0.000187702
0.000139206
0.000114471
0.000136049
0.000231687
0.000390897
0.000531468
0.000622905
0.000621907
0.000601321
0.000567575
0.00050805
0.000332234
0.000125838
9.50115e-05
0.000111537
0.000157881
0.000202474
0.000234534
0.000291063
0.0003865
0.000417382
0.000402499
0.000341463
0.00020781
7.81861e-05
4.593e-05
5.0524e-05
6.98389e-05
0.000115366
0.000207461
0.00032459
0.000368681
0.000366797
0.00035885
0.000327621
0.000209754
5.09087e-05
2.80787e-05
3.38401e-05
5.70086e-05
0.000101949
0.000160296
0.000208792
0.000232023
0.000236236
0.000234421
0.000224482
0.00022609
0.00023275
0.000226458
0.000208733
0.000185988
0.000146743
7.73392e-05
3.45493e-05
3.27458e-05
3.972e-05
5.91206e-05
9.05379e-05
0.000129704
0.000176963
0.000227395
0.000280985
0.000356759
0.00041345
0.000410535
0.000377776
0.000303256
0.000206248
0.000165563
0.000167616
0.000171237
0.000155109
8.94447e-05
4.19626e-05
4.16532e-05
5.31804e-05
7.99588e-05
0.000123776
0.000187145
0.000227492
0.00022173
0.00019049
0.000147431
0.000126435
0.000121273
0.000118552
0.000117717
0.000120984
0.00013374
0.000162934
0.000179448
0.000180347
0.000178162
0.000174207
0.000172636
0.000172744
0.000174025
0.000177257
0.0001881
1.50078e-05
7.10297e-05
0.000125723
0.000160799
0.000154865
0.000169453
0.000220348
0.000220052
0.000207843
0.000256047
0.000397919
0.000414399
0.000372398
0.000364987
0.000419445
0.000482123
0.000497068
0.000498145
0.000495796
0.000470883
0.000406686
0.00037064
0.000348911
0.00030025
0.000176679
0.00010053
0.000104987
0.00014054
0.0002238
0.000345215
0.000399819
0.000385061
0.000344886
0.000330831
0.000307399
0.000222813
7.10048e-05
4.40271e-05
5.32564e-05
8.8946e-05
0.000151019
0.000212354
0.000240302
0.000246966
0.00025797
0.000278344
0.000291663
0.000306859
0.000312885
0.000306761
0.000289693
0.000262536
0.000207698
0.000105905
4.52074e-05
4.19748e-05
5.00218e-05
7.35888e-05
0.000112663
0.000162551
0.000230802
0.000319128
0.000412362
0.000485483
0.000485594
0.00045627
0.000397497
0.00030474
0.000198127
0.000154269
0.000154784
0.000156939
0.000141158
7.95305e-05
4.62509e-05
4.94097e-05
6.81103e-05
0.000107024
0.000169286
0.000236692
0.0002482
0.000227407
0.000175471
0.000141402
0.000139272
0.000137529
0.000131107
0.000121865
0.000122192
0.000128973
0.000152667
0.000174789
0.000179612
0.000180979
0.000182283
0.000182236
0.000181301
0.000180632
0.000181378
0.000187186
1.94106e-06
1.92296e-05
4.11887e-05
3.70913e-05
3.52697e-05
4.39526e-05
5.57801e-05
6.16339e-05
7.5748e-05
0.00014006
0.000280957
0.00042505
0.000453649
0.000457584
0.00046581
0.000471238
0.000470238
0.000457892
0.000412741
0.00035934
0.000366262
0.000364179
0.000339208
0.000276923
0.000186569
0.000161354
0.000184748
0.000258521
0.000367774
0.000437866
0.000426254
0.000370893
0.000271857
0.000266628
0.000265202
0.000199237
7.9965e-05
6.36127e-05
8.16118e-05
0.000139368
0.000216807
0.000259223
0.000281169
0.000305537
0.000358555
0.000405784
0.000400553
0.000379182
0.000353995
0.000338425
0.000326854
0.000310087
0.000262407
0.000140381
5.83095e-05
5.30389e-05
6.26744e-05
9.19272e-05
0.000143154
0.000215707
0.000324873
0.000451363
0.000530127
0.000535796
0.000509768
0.000444922
0.0003515
0.000248811
0.000167276
0.000139734
0.000140554
0.000141298
0.000123778
6.81686e-05
5.16441e-05
5.96398e-05
8.84168e-05
0.000142685
0.000221407
0.00027429
0.000271132
0.000230135
0.000187276
0.000175554
0.000167051
0.000156441
0.000142578
0.000127562
0.000124497
0.000128883
0.00014562
0.000167794
0.000179266
0.000191335
0.000201952
0.000202336
0.000198664
0.000192581
0.000190982
0.000197934
2.35536e-07
2.48509e-06
4.50088e-06
5.45706e-06
7.06364e-06
1.01014e-05
1.40496e-05
1.8476e-05
2.99618e-05
6.17263e-05
0.000122286
0.000211658
0.000282793
0.000307715
0.000298864
0.000295932
0.000299084
0.000292564
0.000271563
0.000296331
0.000371765
0.000393658
0.000353749
0.000280407
0.000250082
0.000266069
0.000326072
0.000403914
0.000459519
0.000465759
0.000442052
0.000349753
0.000210398
0.000206174
0.000209044
0.000158208
8.64077e-05
8.75616e-05
0.000125777
0.00021379
0.000318255
0.000388465
0.00042857
0.000472573
0.000488443
0.000472937
0.000438091
0.000375479
0.000303273
0.000297237
0.000305288
0.000300809
0.000271994
0.000168115
7.23927e-05
6.57346e-05
7.84373e-05
0.000117395
0.000189231
0.000295681
0.00044138
0.000552891
0.000570364
0.000552709
0.000487803
0.000371582
0.00026179
0.000182663
0.000140163
0.000127004
0.000126976
0.000125133
0.000101733
6.07466e-05
5.79866e-05
7.36609e-05
0.000115424
0.000186743
0.000273816
0.000307791
0.000299339
0.000270495
0.000251644
0.000235995
0.000210275
0.000178737
0.000152837
0.00013349
0.000127447
0.000130201
0.000141252
0.000160348
0.000182038
0.000214247
0.000244703
0.000247652
0.000239427
0.000224236
0.000217382
0.000232815
2.91449e-08
2.78884e-07
5.62628e-07
9.33882e-07
1.51744e-06
2.51487e-06
4.1091e-06
6.63484e-06
1.17124e-05
2.22388e-05
3.96186e-05
6.41103e-05
9.16757e-05
0.000109315
0.00011513
0.000125054
0.000138774
0.000154747
0.00017791
0.000232325
0.000337124
0.000419103
0.000431131
0.000415288
0.000399504
0.000412809
0.000440867
0.000451665
0.000462176
0.000478687
0.000459711
0.000341369
0.000177678
0.000143202
0.000133578
0.000107477
9.98695e-05
0.00012561
0.000211214
0.000359107
0.000484173
0.000528135
0.000537333
0.000533256
0.000520386
0.000480972
0.000391728
0.000264836
0.000202536
0.000207995
0.000242847
0.000275085
0.000256817
0.000169339
8.31818e-05
7.97391e-05
9.9082e-05
0.000155129
0.000258008
0.000397931
0.000540175
0.000591751
0.000583832
0.000549489
0.000437075
0.000289818
0.000191653
0.000144978
0.000126375
0.000119242
0.000115625
0.000107272
7.84518e-05
5.98715e-05
6.60778e-05
9.33097e-05
0.000149534
0.000236787
0.000321811
0.000346329
0.000345995
0.00034348
0.000341224
0.000322427
0.000270806
0.000206369
0.000163344
0.000140413
0.000131797
0.000133108
0.000142153
0.000161043
0.000195201
0.000257911
0.000325462
0.000341068
0.000330416
0.000305178
0.000290053
0.000318098
4.65265e-09
3.35601e-08
8.68826e-08
2.08717e-07
4.80888e-07
1.01683e-06
2.00263e-06
3.6589e-06
6.29645e-06
1.00066e-05
1.44164e-05
1.97006e-05
2.7023e-05
3.56237e-05
4.54144e-05
5.78073e-05
7.26521e-05
9.40239e-05
0.000121134
0.000165543
0.000241203
0.000322041
0.000384224
0.000416336
0.000422
0.000424878
0.000432584
0.000431957
0.000433614
0.000477166
0.000485666
0.000370819
0.000167488
0.00011565
0.000110656
0.00011145
0.000132612
0.000204832
0.000350139
0.000500378
0.000556196
0.00055841
0.000550915
0.000537017
0.000514279
0.000452171
0.000301338
0.00017546
0.000153435
0.000160989
0.000195733
0.000243943
0.000234885
0.000157005
9.20885e-05
9.52371e-05
0.000127413
0.000208731
0.000347084
0.000498811
0.000595078
0.000603066
0.000587546
0.000531058
0.000381
0.000227037
0.000154755
0.000129778
0.000120202
0.000114035
0.000105875
8.80239e-05
6.52736e-05
6.40142e-05
7.91401e-05
0.000119856
0.000191412
0.000290945
0.000366915
0.000390355
0.000409989
0.000435458
0.000444514
0.000423346
0.000348481
0.000245546
0.000176987
0.000148539
0.000138278
0.000138313
0.000145764
0.000168396
0.00022603
0.000337406
0.000459344
0.000496534
0.00048738
0.000455885
0.000428509
0.0004476
7.88816e-09
5.54992e-08
2.18889e-07
6.13276e-07
1.41158e-06
2.80661e-06
4.88944e-06
7.23175e-06
8.93489e-06
9.90587e-06
1.1257e-05
1.34571e-05
1.77422e-05
2.40414e-05
3.24405e-05
4.25997e-05
5.43114e-05
7.01773e-05
9.02299e-05
0.000123195
0.000179034
0.000234678
0.000286924
0.000341184
0.000375293
0.000381366
0.000367568
0.000357615
0.000377606
0.000452179
0.000505735
0.000447519
0.000237702
0.000141459
0.000134183
0.000147858
0.00021519
0.000343533
0.00049655
0.000549059
0.000544485
0.000528886
0.000527228
0.000525848
0.000507578
0.000435096
0.000238289
0.000143036
0.000137589
0.000146524
0.000177952
0.000220501
0.000210854
0.000136742
0.000101673
0.000114962
0.000167532
0.000281827
0.000446783
0.000576928
0.000612815
0.000607768
0.000585234
0.000508452
0.000332845
0.000189552
0.000140382
0.000125001
0.000117236
0.000109333
9.53488e-05
7.39022e-05
6.57598e-05
7.23047e-05
9.94506e-05
0.00015435
0.000241855
0.000347094
0.00041127
0.000444691
0.000489727
0.000536842
0.000549992
0.000528033
0.000443347
0.000306101
0.000199487
0.000159059
0.000147171
0.000146497
0.000155599
0.000188375
0.000286401
0.000462922
0.000622855
0.000660696
0.000649793
0.000612483
0.000573828
0.000550628
4.4991e-08
2.83012e-07
1.02851e-06
2.57434e-06
5.71149e-06
1.06698e-05
1.70488e-05
2.19781e-05
2.37217e-05
2.38519e-05
2.41598e-05
2.57861e-05
2.95043e-05
3.53671e-05
4.26507e-05
4.99076e-05
5.65975e-05
6.53465e-05
7.98035e-05
0.000102371
0.000135918
0.000166137
0.000193489
0.000224983
0.00025317
0.000262808
0.000264253
0.00028235
0.000323519
0.000394188
0.000503508
0.000503572
0.000377219
0.00024253
0.000219794
0.000260342
0.000369157
0.000490875
0.000535391
0.000523548
0.000490355
0.000488598
0.000509034
0.000529179
0.000519004
0.000428731
0.000205164
0.000128689
0.000129652
0.000143139
0.000175886
0.000198539
0.000178143
0.000118701
0.000113201
0.000142748
0.00022372
0.000371155
0.000536436
0.000612002
0.000616125
0.000607963
0.000580547
0.000493795
0.000303404
0.000171357
0.00013499
0.000123283
0.000115351
0.000104507
8.67021e-05
7.22699e-05
7.20139e-05
8.73726e-05
0.000127687
0.000198195
0.000301212
0.000402522
0.000461033
0.000511503
0.000579119
0.000632911
0.000647123
0.000628879
0.000550157
0.000395334
0.000241221
0.000176254
0.000159901
0.000159213
0.000173928
0.000231745
0.000389345
0.000616046
0.000746023
0.000755919
0.000736947
0.000697487
0.000653916
0.000597016
3.34726e-07
1.6114e-06
5.11783e-06
1.12211e-05
2.30311e-05
3.77019e-05
4.73795e-05
5.03726e-05
5.08228e-05
5.08891e-05
5.15743e-05
5.41205e-05
5.84689e-05
6.37045e-05
6.81937e-05
7.0853e-05
7.30181e-05
7.69928e-05
8.45928e-05
9.79106e-05
0.000115534
0.000125464
0.000132641
0.00014405
0.000159529
0.000176335
0.000197145
0.000227104
0.000268744
0.00033344
0.000460946
0.000529746
0.000497837
0.000433897
0.000402679
0.000447103
0.000510592
0.000528952
0.000506799
0.000453036
0.000439923
0.000455466
0.000490769
0.000531049
0.000535359
0.000450944
0.000196274
0.000119705
0.000123644
0.000142371
0.000165049
0.000165578
0.000136286
0.000114598
0.000128772
0.000184293
0.000299487
0.000465365
0.000592475
0.000615972
0.000613581
0.000604781
0.000578204
0.000490789
0.000293268
0.000163623
0.000132607
0.000122293
0.000113647
0.000100844
8.5174e-05
7.82374e-05
8.44794e-05
0.000111085
0.000165526
0.000253412
0.000366882
0.000457794
0.000520071
0.000589917
0.000666706
0.00071337
0.000727153
0.000716047
0.000656052
0.000511034
0.000317664
0.00021072
0.000182684
0.000182435
0.000210058
0.000313168
0.000536548
0.000747072
0.000796785
0.000788968
0.0007598
0.000714069
0.000662448
0.000634054
2.35354e-06
8.76144e-06
2.59185e-05
4.53029e-05
6.36893e-05
7.26715e-05
7.52406e-05
7.85132e-05
8.21235e-05
8.42925e-05
8.65005e-05
8.92222e-05
9.08201e-05
9.09102e-05
9.04552e-05
8.94685e-05
8.91819e-05
9.03189e-05
9.2717e-05
9.64776e-05
9.71225e-05
9.46305e-05
9.46863e-05
9.9772e-05
0.000111802
0.000129468
0.000151166
0.000178578
0.000213724
0.000271159
0.000377472
0.000492569
0.0005231
0.000523456
0.000521441
0.000521139
0.000518651
0.000484391
0.000414427
0.000391018
0.000400563
0.00042747
0.000467952
0.0005244
0.00055467
0.000496467
0.000227435
0.000113879
0.000114915
0.000128541
0.000132806
0.000124007
0.000114954
0.000121711
0.000154759
0.00024777
0.000393289
0.00054892
0.000606752
0.00060882
0.000607418
0.000608383
0.000594176
0.000513699
0.000300377
0.000162048
0.000131866
0.00012176
0.000112785
0.000100946
9.07635e-05
9.14445e-05
0.000105072
0.000144462
0.000214939
0.00032046
0.000434025
0.000516306
0.00058879
0.000671021
0.00073835
0.000770602
0.000782378
0.000778182
0.000743639
0.000635935
0.000438222
0.000281463
0.000229826
0.000229985
0.000283285
0.000447395
0.000696712
0.000803951
0.000803439
0.000784794
0.000755664
0.000716291
0.000692413
0.00072097
5.5506e-06
2.38712e-05
4.84425e-05
6.16437e-05
6.92718e-05
7.3462e-05
7.93432e-05
8.93021e-05
9.70889e-05
0.000100156
0.000100998
0.000100345
9.88151e-05
9.7339e-05
9.61845e-05
9.49556e-05
9.28857e-05
8.97062e-05
8.52866e-05
7.9654e-05
7.37046e-05
7.03538e-05
7.1156e-05
7.5407e-05
8.47376e-05
9.77386e-05
0.000113799
0.000135424
0.000161883
0.000203907
0.000285543
0.000378748
0.000451935
0.000487286
0.000499294
0.000478815
0.000422504
0.000360898
0.000337563
0.000344666
0.000366166
0.000397206
0.000443596
0.000512809
0.000564196
0.000533441
0.00028052
0.000113856
0.000104683
0.000106984
0.000108547
0.000110478
0.000117241
0.000139281
0.000209515
0.000342029
0.000498194
0.0005925
0.000598595
0.000596672
0.000604724
0.000625237
0.000622419
0.000559941
0.000357379
0.000180299
0.000136783
0.00012479
0.000116589
0.000108772
0.00010626
0.000112454
0.000137404
0.00019226
0.00028144
0.000398691
0.000502886
0.00058293
0.000665716
0.000743
0.000786461
0.000803027
0.000809909
0.000809902
0.000798484
0.000742845
0.000593534
0.000412155
0.000327302
0.000328188
0.000419798
0.000629903
0.000794663
0.000808811
0.000798625
0.000781474
0.000774784
0.000765393
0.000775287
0.000840266
6.34771e-07
3.8052e-06
8.69447e-06
1.39739e-05
1.95203e-05
2.64463e-05
3.46146e-05
4.20564e-05
4.76631e-05
5.21297e-05
5.58202e-05
5.98394e-05
6.33172e-05
6.57283e-05
6.59859e-05
6.3964e-05
5.92789e-05
5.47067e-05
5.0579e-05
4.9582e-05
4.94078e-05
4.9996e-05
5.20247e-05
5.60679e-05
6.26449e-05
7.12248e-05
8.25248e-05
9.79395e-05
0.00011425
0.000138397
0.000184573
0.000235837
0.0002803
0.000303935
0.000319345
0.00029925
0.000277167
0.000273646
0.000283469
0.000302583
0.000328275
0.000364096
0.000416965
0.000493129
0.000564129
0.000568866
0.000380379
0.0001336
0.000106428
0.000107027
0.000110439
0.000117622
0.000136386
0.000190927
0.000308273
0.000466134
0.000576481
0.000589061
0.000578433
0.000580128
0.000602937
0.000642442
0.000653745
0.000614715
0.000449796
0.000232397
0.00015775
0.000139111
0.000131461
0.000128572
0.000131785
0.000148081
0.000188236
0.000262048
0.000368847
0.000484092
0.000576562
0.000658448
0.000739658
0.000791608
0.000808812
0.000814075
0.00081783
0.000819555
0.000817819
0.000802559
0.000736568
0.000599168
0.000500398
0.000504234
0.000623064
0.000777766
0.000810061
0.00080238
0.000802691
0.000813179
0.000838481
0.000857508
0.000883868
0.000937683
3.92737e-08
3.05775e-07
8.36126e-07
1.67901e-06
2.81132e-06
4.16315e-06
5.72329e-06
7.36967e-06
9.1845e-06
1.13239e-05
1.36103e-05
1.59444e-05
1.76592e-05
1.89455e-05
1.95115e-05
1.96519e-05
2.01357e-05
2.16099e-05
2.35292e-05
2.60954e-05
2.83624e-05
3.04229e-05
3.2932e-05
3.65222e-05
4.13946e-05
4.74858e-05
5.5424e-05
6.56397e-05
7.57745e-05
8.88802e-05
0.000109731
0.000129998
0.000144209
0.000157105
0.000176346
0.000190039
0.000203177
0.000218616
0.000236858
0.000259396
0.000286977
0.000326639
0.000380176
0.00045223
0.000526343
0.000578935
0.000495108
0.000222111
0.000128652
0.000123356
0.000128893
0.000146751
0.000198841
0.00030139
0.000455721
0.000566899
0.000578007
0.000561294
0.000550271
0.000564781
0.000604618
0.000653182
0.000679696
0.00066129
0.000556883
0.00034879
0.000221722
0.000178987
0.000167427
0.000167762
0.000179217
0.000209474
0.000267885
0.000359765
0.00047061
0.00057112
0.000654302
0.00073409
0.000793957
0.000811176
0.000814083
0.000813657
0.000812078
0.000814393
0.000820318
0.000820215
0.000804561
0.000761975
0.000712303
0.00071866
0.000785077
0.000809291
0.000801008
0.000802023
0.000828299
0.000875604
0.000916366
0.000936547
0.000950185
0.000975
2.40157e-09
2.01973e-08
6.26421e-08
1.46129e-07
2.67634e-07
4.21472e-07
6.26634e-07
8.9531e-07
1.26219e-06
1.71082e-06
2.20842e-06
2.75573e-06
3.28563e-06
3.8117e-06
4.32853e-06
4.89034e-06
5.72748e-06
6.94848e-06
8.44528e-06
1.02649e-05
1.20801e-05
1.40123e-05
1.65975e-05
2.03177e-05
2.51183e-05
3.09624e-05
3.79548e-05
4.6122e-05
5.47311e-05
6.4178e-05
7.56583e-05
8.79947e-05
9.92804e-05
0.000112521
0.000131312
0.000146862
0.000161527
0.000178085
0.000197619
0.000219419
0.000246393
0.000284513
0.000329538
0.000388722
0.000456261
0.000563862
0.000550194
0.00039778
0.000222411
0.000188269
0.000197291
0.000243961
0.000346027
0.000477109
0.000569889
0.000566793
0.000538484
0.000516532
0.000523463
0.000556716
0.000607081
0.000657417
0.000689969
0.000688536
0.000643271
0.00050145
0.000360692
0.000276514
0.000248652
0.000247629
0.000266671
0.00031037
0.000382263
0.00047666
0.000574234
0.00065855
0.000735989
0.000794795
0.000808142
0.000804809
0.000795592
0.000776762
0.000758821
0.000759773
0.000776628
0.000803165
0.000817998
0.000815289
0.000808045
0.000805445
0.000805515
0.000795868
0.000790771
0.000815858
0.000876278
0.000925133
0.000947383
0.000955486
0.000961997
0.000974726
1.33839e-10
1.22571e-09
4.28339e-09
1.12894e-08
2.26038e-08
3.91045e-08
6.52469e-08
1.06135e-07
1.69188e-07
2.52132e-07
3.49344e-07
4.64883e-07
5.95972e-07
7.54039e-07
9.47068e-07
1.18459e-06
1.51289e-06
1.9547e-06
2.53702e-06
3.3222e-06
4.29035e-06
5.81804e-06
8.28988e-06
1.2292e-05
1.79451e-05
2.48668e-05
3.24978e-05
4.07372e-05
4.9351e-05
5.80193e-05
6.72679e-05
7.79591e-05
8.99683e-05
0.000102707
0.000116014
0.000127208
0.000138914
0.000153208
0.000170779
0.000190551
0.000214182
0.000244147
0.000276342
0.000319579
0.000379447
0.00048233
0.000563258
0.000525516
0.000440583
0.000399904
0.000400738