/*--------------------------------*- C++ -*----------------------------------*\
| =========                 |                                                 |
| \\      /  F ield         | OpenFOAM: The Open Source CFD Toolbox           |
|  \\    /   O peration     | Version:  2.3.0                                 |
|   \\  /    A nd           | Web:      www.OpenFOAM.org                      |
|    \\/     M anipulation  |                                                 |
\*---------------------------------------------------------------------------*/
FoamFile
{
    version     2.0;
    format      ascii;
    class       volScalarField;
    location    "0.05";
    object      Zeta;
}
// * * * * * * * * * * * * * * * * * * * * * * * * * * * * * * * * * * * * * //

dimensions      [0 0 0 0 0 0 0];

internalField   nonuniform List<scalar> 
5000
(
7.04644e-05
0.000191183
0.000440329
0.00092009
0.00174757
0.00300733
0.00472546
0.0069422
0.00997995
0.0145152
0.0209145
0.0291378
0.0377093
0.0450606
0.0501996
0.053572
0.0570199
0.0622894
0.0697514
0.0784546
0.0906535
0.111844
0.147372
0.203005
0.284511
0.397446
0.552926
0.776392
1.12828
1.76634
2.95869
5.08192
8.71138
14.641
23.9564
38.3766
60.9278
98.7645
166.454
282.384
482.071
0.0258902
0.0281886
0.0272274
0.0265305
0.0280052
0.0275095
0.0267623
0.0280187
0.027483
0.0278399
0.026123
0.0256909
0.0289593
0.0229576
572.456
448.835
350.987
277.199
227.913
207.198
222.323
276.733
370.74
513.838
0.0226213
0.0305084
0.0281087
0.0280118
0.0310273
0.0279592
0.027731
0.0264248
0.0258955
0.0257644
0.0257677
0.0256241
0.02548
0.0253129
0.0251395
0.0249624
0.0247732
0.0245722
0.0243552
0.0241267
0.0239051
0.0237372
0.0236787
0.0237637
0.0240323
0.0244931
0.0252732
0.0270571
0.0272876
0.023523
0.0135806
0.00543249
0.00306617
0.00325381
0.00347277
0.00056901
0.00120485
0.00252609
0.00528697
0.0104186
0.0188191
0.0308788
0.0455728
0.0609994
0.0814335
0.111078
0.152292
0.198945
0.240815
0.271711
0.293649
0.319327
0.358611
0.406883
0.441969
0.468522
0.532385
0.663715
0.893566
1.2525
1.76343
2.43596
3.32703
4.5448
6.63479
10.6721
17.8243
29.8771
49.1193
77.1883
115.648
170.282
270.993
460.719
0.0244522
0.0237643
0.0271824
0.0265786
0.0268101
0.0266171
0.0267334
0.0267549
0.0268033
0.0268259
0.0269933
0.0270311
0.0274045
0.0274814
0.0270873
0.027748
0.0286291
0.0313576
0.0340771
0.0262277
0.0207255
554.229
552.854
0.0212917
0.0292157
0.0295992
0.0305966
0.0298954
0.0308858
0.0310279
0.0311166
0.0308271
0.029916
0.0284022
0.0271127
0.0260468
0.0253722
0.0252403
0.0251045
0.0249223
0.0247325
0.0245506
0.024371
0.024186
0.0239973
0.0238098
0.0236374
0.0235128
0.0234924
0.0236458
0.0240203
0.0246388
0.0256335
0.0276272
0.02856
0.0254514
0.0144127
0.00590244
0.00336885
0.00358173
0.00389453
0.00639998
0.0116332
0.0194121
0.0349603
0.0673169
0.1271
0.226857
0.364257
0.504777
0.633247
0.795815
1.01131
1.24325
1.44972
1.63345
1.84585
2.18334
2.66751
3.18094
3.37864
3.20041
3.26741
3.76098
4.87735
6.78707
9.54446
13.2748
17.7635
22.7757
30.7806
47.2738
76.7179
125.481
200.669
299.875
406.899
506.265
0.0212941
0.0314592
0.0277979
0.0245689
0.0248278
0.0247214
0.0247446
0.0249292
0.0255976
0.0262186
0.0262958
0.0263013
0.0262969
0.0263331
0.0264416
0.0266627
0.0270144
0.0273828
0.0278212
0.0284433
0.0287932
0.0291884
0.0303245
0.0314017
0.0285295
0.0289265
0.0301836
0.0299264
0.0301173
0.0302554
0.0308665
0.0313321
0.0317713
0.031797
0.0317112
0.0310495
0.0293001
0.0271989
0.0251692
0.0247721
0.0246456
0.024477
0.0242898
0.0241141
0.023949
0.0237908
0.0236414
0.0235085
0.0234026
0.0233494
0.0234012
0.0236367
0.0241349
0.0249847
0.0263724
0.0284839
0.0292028
0.0268232
0.0151496
0.00624719
0.00394181
0.00431989
0.00479264
0.0726306
0.138024
0.190195
0.247476
0.382852
0.681265
1.25019
2.20313
3.49024
4.97104
6.33709
7.57697
8.54311
9.24716
9.95581
11.3034
14.1062
18.3416
22.9065
24.6277
22.1731
20.8936
22.2064
27.464
37.9003
53.779
75.0893
97.4566
115.039
140.523
203.742
323.229
523.836
0.0262897
0.027188
0.0281654
0.0299198
0.0270864
0.0272064
0.0257856
0.0250009
0.0244485
0.0243916
0.0243507
0.0239806
0.023492
0.0232759
0.0238874
0.0244991
0.02522
0.0249739
0.0249576
0.025765
0.0270106
0.0279736
0.0286207
0.0289276
0.0297706
0.030795
0.0310972
0.0301504
0.0296022
0.0295044
0.0298431
0.0297739
0.0296373
0.0293438
0.0288014
0.0291441
0.0303992
0.0313826
0.0318782
0.0317682
0.0317107
0.0285907
0.0259217
0.024476
0.0241988
0.0240751
0.0239289
0.0237784
0.0236384
0.0235106
0.0234001
0.0233157
0.0232676
0.0232798
0.0234046
0.0237346
0.0243916
0.025554
0.0274487
0.0294261
0.0298765
0.0273248
0.015495
0.00645035
0.00471408
0.00532521
0.00596069
0.677873
1.537
2.32244
2.44208
2.76111
3.7421
5.98383
10.3518
17.5772
28.3297
41.1129
53.0012
60.6552
62.9929
63.9778
69.8633
87.9006
117.65
150.762
165.795
147.195
130.918
128.431
148.977
201.122
286.2
398.008
508.02
569.394
0.0196228
0.0255777
0.0273543
0.0310631
0.0298036
0.030595
0.0305746
0.0303324
0.0300824
0.0284493
0.0266909
0.0254473
0.0238512
0.0236656
0.0233269
0.0228694
0.0224272
0.0220689
0.0219732
0.0229125
0.0239924
0.0251374
0.026974
0.0278926
0.0279531
0.0284031
0.0293785
0.0308592
0.0313127
0.0307374
0.0302198
0.0300042
0.0297305
0.0300119
0.0299204
0.0297921
0.0295265
0.0291646
0.0284199
0.0274509
0.0269814
0.0290429
0.0301153
0.0314021
0.0320551
0.0300382
0.0269123
0.0245773
0.023866
0.0237392
0.0236445
0.0235299
0.0234143
0.023313
0.0232366
0.0231958
0.0232005
0.0232731
0.023471
0.0239079
0.0247688
0.0263322
0.0287678
0.0302857
0.0303212
0.0271803
0.0154605
0.00671421
0.00584204
0.00670041
0.00745813
6.29415
14.5053
22.8163
25.0798
25.7634
30.4888
40.7173
61.3695
97.8176
154.464
229.108
303.583
352.05
365.862
372.277
411.481
0.0164961
0.0226446
0.0297297
0.0236191
0.0296904
0.0252226
0.0229357
0.0243741
0.0221975
0.0255103
0.0273051
0.027444
0.0271698
0.0272779
0.0280637
0.029488
0.0299317
0.0295601
0.0298861
0.0311646
0.0310966
0.0309364
0.0303425
0.0289549
0.0268352
0.0240911
0.0231574
0.0227473
0.0224259
0.0221306
0.0219151
0.0218153
0.0219092
0.0226331
0.0244852
0.0255534
0.0265778
0.0282196
0.030307
0.0319662
0.0311775
0.0305074
0.030486
0.0306912
0.0302344
0.0301879
0.0307051
0.0303274
0.0298349
0.0295012
0.0289974
0.0282687
0.027371
0.0263642
0.0264989
0.0292627
0.0304021
0.0321686
0.0325485
0.0269268
0.0250388
0.0237151
0.0234577
0.0234052
0.0233343
0.0232483
0.0231731
0.0231295
0.0231313
0.0231879
0.0233207
0.0235945
0.0241518
0.0252583
0.0273205
0.0301479
0.0308647
0.0309104
0.0261144
0.0153444
0.00724446
0.00726232
0.0081971
0.00893155
36.2375
84.1965
149.026
189.996
217.305
249.701
298.149
0.0124104
0.017827
0.0186149
0.0188836
0.0201249
0.0216947
0.0216628
0.0216227
0.022251
0.0237662
0.0254662
0.0266067
0.0276124
0.0274597
0.0269235
0.0265132
0.0262951
0.0263548
0.0265344
0.0271308
0.0274995
0.0277933
0.0279118
0.0282418
0.0287284
0.0290747
0.0291289
0.0285261
0.0288212
0.0306699
0.0311165
0.0310669
0.0308153
0.029423
0.0258623
0.0231749
0.0224999
0.0222302
0.0220398
0.0219194
0.0219124
0.0220745
0.0225446
0.0237316
0.0250913
0.0255992
0.0264345
0.0277871
0.0293947
0.0309879
0.0324444
0.0328482
0.0312965
0.0308534
0.0332548
0.0323396
0.0307234
0.0299458
0.0294912
0.0290534
0.028472
0.0277724
0.0269299
0.0260316
0.027701
0.0293937
0.0312653
0.0334248
0.0281686
0.0256629
0.0237432
0.0232284
0.023188
0.0231689
0.0231208
0.0230762
0.0230682
0.0231163
0.0232286
0.0234263
0.0237816
0.0244734
0.0258639
0.0284858
0.0310849
0.0313543
0.0313879
0.0248048
0.0156711
0.00871301
0.00899226
0.00976755
0.0103384
0.0100597
0.0111911
0.0124813
0.0139761
0.0148706
0.0150318
0.015861
0.0174474
0.0191967
0.0206692
0.0219224
0.0226455
0.0229745
0.0231033
0.0234229
0.0241481
0.0254387
0.0269637
0.0283952
0.0294514
0.0299289
0.0296794
0.0292287
0.0286853
0.0279118
0.0279585
0.0284564
0.0283735
0.0287372
0.0289929
0.0290227
0.029206
0.0294034
0.0294321
0.0279813
0.0264637
0.0276665
0.0296407
0.0305705
0.0313923
0.0321836
0.0268669
0.0241552
0.0224767
0.0220718
0.0219481
0.0219232
0.0220436
0.0223884
0.0230503
0.0241839
0.0252518
0.0256923
0.0264336
0.027479
0.0284989
0.0296975
0.0310564
0.0323025
0.0341927
0.0362313
0.0354935
0.032414
0.0306864
0.0300441
0.029507
0.0290844
0.0285756
0.0279739
0.0273117
0.0265262
0.0267052
0.0287599
0.0300335
0.0325865
0.0305653
0.0257067
0.0240942
0.0230974
0.0229792
0.0230147
0.0230185
0.0230146
0.0230503
0.0231526
0.0233296
0.0236009
0.0240452
0.0248817
0.0265951
0.0297878
0.0315174
0.0322192
0.0311987
0.0229802
0.0165513
0.0114999
0.0113221
0.0115649
0.0117939
0.0087886
0.0112632
0.0139888
0.0159631
0.0169322
0.0175329
0.0182712
0.0194099
0.0209963
0.0225684
0.0238449
0.0247163
0.0253052
0.0256104
0.0259811
0.0266504
0.0275951
0.0287433
0.0300499
0.0309888
0.0328219
0.0326997
0.0323206
0.0316797
0.0318196
0.0305743
0.029886
0.0290216
0.0294866
0.030913
0.0309636
0.0310315
0.0315282
0.0308255
0.0291364
0.0267735
0.0254674
0.0284043
0.0301001
0.0320272
0.0336251
0.0281205
0.0252346
0.0227104
0.0219604
0.0218409
0.0219253
0.0222203
0.0228147
0.0237673
0.0249847
0.0257878
0.0264281
0.0271231
0.0279829
0.0289462
0.0299445
0.0309158
0.0313742
0.0322239
0.0338644
0.035709
0.0343778
0.030738
0.0302126
0.0295834
0.0290855
0.0285578
0.027943
0.0273623
0.0269585
0.0271189
0.0282148
0.0287496
0.031581
0.0334801
0.0263261
0.024573
0.0231096
0.022794
0.0228634
0.0229331
0.0229851
0.0230779
0.023248
0.0235043
0.0238619
0.0244028
0.0253917
0.0275544
0.0306869
0.031615
0.0332336
0.0292248
0.0208942
0.017946
0.0142186
0.013385
0.0132248
0.0132128
0.00873034
0.0122856
0.0153991
0.0179974
0.0198157
0.0212095
0.022146
0.0230412
0.0243497
0.0259744
0.0267324
0.027285
0.0282221
0.0296652
0.0300546
0.0312605
0.0327222
0.0327175
0.0320975
0.0308355
0.0314426
0.0339349
0.0350642
0.0359626
0.0349604
0.0313238
0.0306153
0.0299051
0.0296217
0.0307343
0.0335287
0.0342221
0.0351992
0.033196
0.0306367
0.0280933
0.0257024
0.0252219
0.0291974
0.030952
0.0336316
0.0323989
0.0256863
0.0232926
0.021932
0.0217364
0.0219538
0.0224829
0.0233879
0.0246295
0.0258755
0.0266406
0.0272195
0.0279217
0.0287004
0.029471
0.0302208
0.0308073
0.0310108
0.0314469
0.0322656
0.0337355
0.0343784
0.030844
0.0303373
0.0296884
0.0290527
0.028429
0.0277935
0.0273624
0.0273758
0.0277777
0.0283217
0.0284796
0.0299843
0.0327185
0.0274365
0.0247523
0.0232211
0.0226723
0.0227365
0.0228684
0.0229896
0.0231583
0.0234166
0.023773
0.0242328
0.0248774
0.0260499
0.0288002
0.0307559
0.0316822
0.0316307
0.025549
0.0200797
0.0192194
0.0166579
0.0153544
0.0148857
0.0146241
0.0111509
0.0186513
0.022418
0.0261066
0.0290824
0.029581
0.0318632
0.0324499
0.0312226
0.0308791
0.0314254
0.0326341
0.0335049
0.0339522
0.0343534
0.036389
0.0378169
0.0365131
0.0349204
0.0313898
0.0292875
0.0296671
0.0300211
0.03166
0.0343834
0.0329803
0.031847
0.0305247
0.0298041
0.0301744
0.0320577
0.0326375
0.0338152
0.0341914
0.0306328
0.0287997
0.0264682
0.0253864
0.0271379
0.0281221
0.0309958
0.0335525
0.0262387
0.023979
0.0220941
0.0217028
0.0220582
0.0228737
0.0241213
0.0255856
0.0267297
0.0274063
0.0279676
0.0285657
0.0291971
0.0298075
0.0303417
0.0306417
0.0307891
0.0311304
0.0317185
0.0328747
0.0336813
0.0309601
0.0302901
0.0296973
0.0289433
0.0282187
0.0276237
0.0274772
0.0279246
0.0282943
0.0284732
0.0285018
0.0287376
0.0304592
0.0276993
0.0243433
0.0232908
0.0226396
0.022663
0.0228411
0.0230402
0.0233065
0.0236792
0.0241622
0.0247419
0.0255004
0.0269422
0.0299205
0.0306328
0.0310374
0.0272529
0.0220212
0.0204791
0.0173895
0.0174936
0.0169669
0.0165162
0.0160168
0.00761979
0.0132475
0.0167282
0.0186631
0.0199984
0.0222932
0.0251449
0.0268056
0.0271647
0.027486
0.0276179
0.0277532
0.0280331
0.0287363
0.030278
0.0318862
0.0325762
0.0316132
0.0298913
0.0277455
0.0267164
0.0270059
0.0277198
0.0293997
0.0330855
0.0329448
0.0318879
0.0302431
0.0293175
0.0296359
0.0305368
0.0307897
0.0321701
0.0329448
0.0303118
0.028563
0.0266527
0.0260691
0.0264895
0.0266968
0.0277995
0.0313526
0.0268671
0.0242181
0.0223064
0.0217878
0.0223025
0.0234378
0.024994
0.02648
0.0274306
0.0279921
0.0284634
0.0289509
0.0294522
0.02991
0.0302619
0.0304108
0.0305589
0.0308789
0.0314745
0.0325602
0.0330697
0.0309691
0.0300824
0.0295898
0.0287549
0.0280145
0.0275778
0.0276987
0.0283839
0.0288499
0.0289525
0.0287303
0.0285431
0.0285342
0.0265421
0.0239715
0.0232029
0.0226347
0.0226507
0.0228708
0.0231584
0.0235462
0.0240637
0.0247044
0.025423
0.0263131
0.0281245
0.0306696
0.0307165
0.0298519
0.0226428
0.0205858
0.0241539
0.019973
0.0196965
0.0190687
0.0181741
0.0172245
0.00382558
0.00764185
0.00993786
0.0113917
0.0133476
0.0162136
0.0193249
0.0216087
0.022897
0.0235412
0.0236048
0.0231134
0.023117
0.0239682
0.0256372
0.0270692
0.0273651
0.0270934
0.0261638
0.0248016
0.024752
0.0259554
0.0275794
0.0307021
0.033677
0.0322469
0.03112
0.0294603
0.0287189
0.0289521
0.0293181
0.029608
0.0309801
0.0308636
0.0293903
0.0279754
0.0265269
0.0262998
0.0264812
0.026642
0.0270919
0.0296256
0.0267957
0.0240455
0.0224543
0.0219911
0.0227214
0.024168
0.0258694
0.0271761
0.0278918
0.0283282
0.0287185
0.029123
0.029498
0.0298052
0.0300164
0.0301358
0.0302831
0.0305592
0.0311982
0.0321272
0.0323634
0.0308544
0.0298636
0.0293934
0.0285605
0.0280159
0.0279874
0.0282491
0.028515
0.0293992
0.0295549
0.0291552
0.028718
0.0280066
0.0256718
0.023669
0.0230772
0.0226364
0.0226995
0.0229815
0.023377
0.0239131
0.0246086
0.0254414
0.0263126
0.0273614
0.0295443
0.0313723
0.0310838
0.0284236
0.0205904
0.0200158
0.0288807
0.0244141
0.022004
0.0206542
0.019009
0.0177762
0.00173049
0.00367895
0.00515753
0.00665332
0.008867
0.01173
0.0146467
0.0170984
0.0186673
0.0189531
0.018689
0.0183687
0.0187651
0.0199331
0.0214314
0.0225421
0.0230347
0.0230351
0.0226411
0.0224734
0.0232116
0.0253101
0.0274554
0.0302618
0.0319771
0.0308658
0.0298807
0.0285666
0.0278826
0.0277189
0.0278219
0.0280575
0.0288495
0.0285585
0.0278474
0.0270021
0.0264685
0.0260002
0.0282157
0.0286357
0.0285967
0.0292059
0.0259175
0.023874
0.0224991
0.0223054
0.0233338
0.0250098
0.0266212
0.0276247
0.028133
0.0284821
0.0288111
0.029131
0.0294139
0.0296373
0.0298015
0.0299266
0.0300279
0.0302276
0.030739
0.031493
0.0315873
0.0305641
0.0296754
0.0292144
0.0285239
0.0283884
0.0285223
0.0284792
0.0289353
0.0296433
0.0297327
0.0294646
0.0289497
0.028035
0.0253324
0.0235053
0.0229841
0.022676
0.0228348
0.0232109
0.0237414
0.024456
0.025366
0.02642
0.027449
0.0286718
0.0310844
0.0321944
0.0316804
0.0269929
0.0199296
0.0200822
0.0291402
0.0273187
0.0232104
0.0207301
0.019068
0.0181945
0.000802209
0.00174669
0.00274125
0.00397166
0.00580037
0.00807331
0.0103351
0.0123048
0.01358
0.0140137
0.0141173
0.0144338
0.0153005
0.0165381
0.0178072
0.0187616
0.0193875
0.0197661
0.0200796
0.0207274
0.022041
0.0239728
0.0261189
0.0277712
0.028681
0.0285296
0.0279225
0.0270163
0.0265911
0.0263198
0.0262399
0.0264319
0.0268099
0.0267822
0.0267118
0.0264274
0.0260304
0.0262964
0.0291012
0.0307797
0.0306909
0.0292823
0.0250465
0.0236864
0.0225281
0.0227737
0.0241306
0.0258452
0.0271668
0.0278577
0.0282212
0.0285096
0.0287905
0.0290478
0.0292555
0.0294169
0.0295613
0.0297069
0.0298734
0.0300022
0.0302971
0.0307828
0.0308489
0.0302137
0.0295198
0.029125
0.0287615
0.0290158
0.0291051
0.0290088
0.0289936
0.0292127
0.0294445
0.0296487
0.0293276
0.0280717
0.0248113
0.023451
0.0229363
0.022814
0.0231167
0.0236195
0.024314
0.025239
0.0263975
0.0276898
0.0288558
0.0302504
0.0326508
0.0331691
0.0322009
0.0257906
0.0197874
0.0211741
0.0233875
0.0256401
0.022047
0.0205272
0.0196911
0.019193
0.000448
0.000964113
0.0017202
0.00276352
0.00413381
0.00569762
0.00726083
0.00868851
0.0096948
0.0104043
0.0110299
0.0118162
0.0128269
0.0139413
0.0150212
0.0159539
0.0167859
0.0175741
0.0184306
0.0194782
0.0208168
0.0223685
0.0238857
0.0252627
0.0259605
0.0261095
0.0259648
0.0257055
0.0251815
0.0247621
0.0247499
0.0249836
0.0254032
0.0257396
0.0259378
0.0259261
0.0257681
0.0267612
0.0283098
0.0296009
0.0298103
0.0273548
0.0245614
0.023271
0.0226806
0.0234716
0.0250331
0.0265534
0.0274937
0.0279199
0.0281958
0.0284594
0.0287011
0.0289058
0.029072
0.0292133
0.0293654
0.0295305
0.0297166
0.0299136
0.030065
0.0302755
0.0302829
0.029916
0.0295133
0.0293507
0.0293965
0.0298123
0.0298836
0.0299685
0.0290311
0.0284717
0.0289965
0.0296277
0.0293733
0.0276856
0.0242863
0.0234817
0.0229807
0.0231531
0.0236381
0.0242948
0.0251767
0.0263385
0.0277687
0.0292817
0.0305427
0.0320822
0.0341794
0.0342129
0.0326664
0.0248256
0.0199304
0.0231398
0.0211838
0.0232953
0.0225479
0.0219626
0.0212472
0.0207191
0.000529201
0.00113662
0.0020135
0.00305422
0.00418522
0.00532291
0.00642228
0.00745062
0.00834943
0.00915047
0.00992439
0.0107309
0.0116039
0.0125262
0.0134685
0.0144119
0.015375
0.0163593
0.0173732
0.0184217
0.0195829
0.0208463
0.0220994
0.0232232
0.0240698
0.0245692
0.0245648
0.0241466
0.0235524
0.0234016
0.0235442
0.0239416
0.0244598
0.024937
0.0253829
0.0259185
0.0259761
0.0267701
0.0273745
0.0265556
0.0260581
0.025242
0.0239911
0.0229821
0.0231835
0.0243988
0.0259058
0.0270473
0.0276092
0.027934
0.0281782
0.028398
0.0286003
0.0287788
0.0289315
0.0290962
0.0292842
0.0295005
0.0297392
0.029963
0.03013
0.0301704
0.0301369
0.0299446
0.0298567
0.0300008
0.0304263
0.0308296
0.0311165
0.0310043
0.0288105
0.0272985
0.0280553
0.0290321
0.0287121
0.0266214
0.0240464
0.0234211
0.0232619
0.0238237
0.0245255
0.0253493
0.0264277
0.0278373
0.0295253
0.0312064
0.0325025
0.0341199
0.0356949
0.0351937
0.0331458
0.0239951
0.0201472
0.0262161
0.0252931
0.0256048
0.0248753
0.0238964
0.0229266
0.0223655
0.000998301
0.00215522
0.00349761
0.00483116
0.0060608
0.00706675
0.00792253
0.00867252
0.0093467
0.00996108
0.0105394
0.0111004
0.0117123
0.0124125
0.0131856
0.0140186
0.0148969
0.015789
0.0166717
0.0175396
0.0184612
0.0194549
0.0204545
0.0214133
0.0222171
0.0227007
0.0226991
0.0223977
0.022198
0.0223424
0.0227303
0.0233092
0.0239346
0.0245334
0.0251317
0.0258578
0.0261705
0.0264013
0.0266526
0.0252834
0.024688
0.0241009
0.0234078
0.0232689
0.0240606
0.0253944
0.0266142
0.0272958
0.0276968
0.0279583
0.0281542
0.0283524
0.028544
0.0287211
0.0288961
0.0291127
0.0293713
0.029692
0.0300333
0.0303131
0.030512
0.0306083
0.0305144
0.0305085
0.0306661
0.0311343
0.0317355
0.0322146
0.032693
0.0325097
0.0289778
0.0259554
0.026153
0.0271461
0.0266711
0.0249305
0.0239976
0.0234513
0.023948
0.0249966
0.0259228
0.0269073
0.0281683
0.0297954
0.0316868
0.0334449
0.0347001
0.0362666
0.037187
0.0361806
0.0333921
0.0233335
0.020472
0.0283873
0.028105
0.0276141
0.0263667
0.0251535
0.0243306
0.0240355
0.00201083
0.00424505
0.00639468
0.00805598
0.00933046
0.0101988
0.010827
0.0112972
0.0116677
0.0119714
0.0122498
0.0125432
0.0129135
0.0133744
0.0139136
0.0145083
0.0151305
0.0157552
0.0163691
0.0169754
0.017627
0.0183479
0.0190952
0.0198398
0.0204813
0.0208962
0.0210087
0.0210791
0.0212979
0.0217289
0.0223755
0.023107
0.0238206
0.0244648
0.0250784
0.0257033
0.0262099
0.0259979
0.0259339
0.0245923
0.0238004
0.023681
0.0235971
0.0240496
0.02511
0.0262913
0.0270089
0.0275162
0.0278113
0.0279853
0.02817
0.0283763
0.0285814
0.0287764
0.0290152
0.0293051
0.02968
0.0301511
0.0305933
0.030988
0.0313116
0.0314917
0.0314959
0.0316052
0.0319742
0.0326601
0.0333446
0.0338418
0.0341917
0.0334509
0.0292688
0.0253192
0.0249828
0.0250631
0.0247321
0.0241954
0.0236265
0.0238513
0.0252186
0.0268169
0.0279665
0.0290832
0.030469
0.0322409
0.0342311
0.0359351
0.0370625
0.0383769
0.0386216
0.0371706
0.03316
0.0229826
0.0210017
0.0278422
0.0289185
0.0280086
0.0268594
0.0261505
0.0258971
0.0260064
0.00370808
0.00829642
0.0114061
0.0128097
0.0137116
0.0141516
0.0143833
0.0144883
0.0145167
0.0145067
0.0145313
0.0146214
0.0148061
0.0150569
0.0153474
0.0156561
0.0159711
0.016284
0.0165941
0.0169158
0.0172819
0.0177163
0.0182052
0.0187345
0.0192422
0.0196794
0.0200193
0.0204133
0.0209395
0.0216284
0.0224467
0.0232695
0.0239963
0.0245998
0.0251488
0.0256722
0.0261003
0.0260497
0.0255078
0.0246288
0.0241661
0.0241707
0.0244055
0.0251451
0.0261496
0.0268491
0.0274402
0.0277584
0.0279119
0.0280755
0.0282822
0.0285082
0.0287433
0.0290005
0.029313
0.0297092
0.0302436
0.0308467
0.0314461
0.0320165
0.0325035
0.0328141
0.0329273
0.0331519
0.0336573
0.0344369
0.0350873
0.0354663
0.035533
0.0343115
0.0302587
0.0250506
0.0242568
0.024324
0.0242322
0.0237088
0.0237402
0.024898
0.027209
0.0294166
0.0307589
0.0319371
0.0333542
0.0351456
0.0370705
0.0385613
0.0394577
0.0402856
0.0399993
0.0379768
0.0322325
0.0231782
0.0220805
0.0249916
0.0286384
0.0281596
0.0279133
0.0279795
0.0281546
0.0284392
0.00820378
0.0139817
0.0168855
0.018017
0.0184951
0.018406
0.0181734
0.0178752
0.017593
0.0173688
0.0172308
0.017203
0.0172635
0.017319
0.0173757
0.0173982
0.0174282
0.0174525
0.0174748
0.0175212
0.0176101
0.0177754
0.0180331
0.0183891
0.0188235
0.019315
0.0198423
0.0204501
0.0211755
0.0220178
0.0229066
0.0237202
0.0243673
0.0248738
0.0253563
0.025853
0.0262545
0.0263108
0.025628
0.0251502
0.0250875
0.0252803
0.0257662
0.0264054
0.0269716
0.0276087
0.0278953
0.0279865
0.0281073
0.0283124
0.028537
0.0288071
0.0291001
0.0294382
0.0298369
0.0303778
0.0310584
0.0318554
0.0326413
0.0333944
0.0340484
0.0344966
0.0347173
0.0350356
0.035605
0.0363666
0.0368763
0.0370533
0.0367654
0.0352166
0.031872
0.0268622
0.024481
0.0239048
0.023775
0.0238125
0.0247354
0.0268
0.0301368
0.0329715
0.0344257
0.0355611
0.0368663
0.0384887
0.0401271
0.041238
0.0417797
0.0420406
0.0411752
0.0384386
0.0309298
0.0241713
0.0251195
0.0233543
0.0300529
0.0306814
0.0308861
0.0310746
0.0311298
0.0312378
0.0104646
0.0138018
0.0163514
0.0176667
0.0185753
0.0195422
0.0199401
0.0200976
0.0201721
0.0201996
0.0201933
0.0201491
0.0200683
0.0199582
0.0198183
0.0196454
0.0194479
0.0192368
0.0190184
0.0188249
0.0186742
0.0186265
0.0187178
0.0189738
0.0193901
0.0199376
0.0205706
0.0212759
0.0220557
0.0228894
0.0237032
0.0243773
0.0248658
0.0252612
0.0257071
0.0262457
0.0267561
0.0269046
0.0265008
0.0260454
0.0263351
0.0267116
0.027138
0.0276435
0.0282033
0.0283321
0.0282876
0.028325
0.0284945
0.0287505
0.0290042
0.0293521
0.0297264
0.0301373
0.0306521
0.0313446
0.0322283
0.0332323
0.0341941
0.0351144
0.0359129
0.0364701
0.0367734
0.0371581
0.0377297
0.0384012
0.0387206
0.0386734
0.0380298
0.0362586
0.0335754
0.0296626
0.0266597
0.0250346
0.0247315
0.0251136
0.0268185
0.0298222
0.0342206
0.0376101
0.0389896
0.039909
0.0408975
0.042104
0.0432168
0.0438096
0.043891
0.0437259
0.0422706
0.0384436
0.0295455
0.0261808
0.0305274
0.0294636
0.0350034
0.0352006
0.0349688
0.0346311
0.0342256
0.0340187
0.0104839
0.01272
0.0147859
0.0161076
0.0171383
0.0184284
0.019226
0.019863
0.0204744
0.0211365
0.0215724
0.0218598
0.0219829
0.0219784
0.0218818
0.0217147
0.0214825
0.0211867
0.0208498
0.0205111
0.0202248
0.0201121
0.0201745
0.0205015
0.0210578
0.0216721
0.022343
0.0230006
0.0235941
0.0241606
0.0247228
0.0251409
0.0254443
0.0257673
0.026218
0.0268314
0.0275209
0.0279146
0.0279335
0.0278883
0.0282217
0.0286064
0.0290388
0.0293069
0.0291445
0.0288628
0.0287772
0.0289165
0.0291521
0.029452
0.0298131
0.0302172
0.0306586
0.0311584
0.0317965
0.0326742
0.0337645
0.0349586
0.0360664
0.0371149
0.0380069
0.0386306
0.0389882
0.0394126
0.0399554
0.0405198
0.040668
0.0404297
0.0395022
0.0376373
0.0354889
0.0326784
0.0301998
0.0280258
0.0273608
0.0279671
0.0303009
0.0341389
0.0394299
0.0429782
0.043931
0.0444209
0.0449171
0.0455325
0.0459582
0.045995
0.0457799
0.0451786
0.0431276
0.0379083
0.028943
0.0283927
0.039058
0.0382265
0.0392996
0.0394332
0.0384523
0.0375184
0.0368082
0.0364562
0.0106474
0.0123106
0.0139993
0.0151903
0.0162403
0.0173205
0.0181987
0.0189227
0.0195459
0.0202042
0.0207171
0.0211096
0.0214065
0.0216339
0.0218083
0.0219973
0.0221928
0.0221908
0.0220767
0.0219024
0.0217688
0.022061
0.0225823
0.0229573
0.0235416
0.024209
0.024644
0.0249007
0.025032
0.0252947
0.0256022
0.0258662
0.0261273
0.0264664
0.026924
0.02754
0.028311
0.0289972
0.0294074
0.0297622
0.0302306
0.0304719
0.0303836
0.0300003
0.0296163
0.0294913
0.0296278
0.0298893
0.0302408
0.030607
0.0309893
0.0314563
0.0319625
0.0325297
0.033301
0.0343664
0.0356423
0.0369903
0.0382011
0.0393251
0.0402533
0.0409069
0.0413061
0.0417673
0.0422735
0.0427442
0.0427738
0.042441
0.0413409
0.0396131
0.0379444
0.0359278
0.034305
0.0324781
0.0317302
0.0325261
0.0352919
0.0396907
0.0450825
0.0479478
0.0481835
0.0482146
0.0482352
0.0482491
0.048125
0.047766
0.0472385
0.0462589
0.0435503
0.0366711
0.0293266
0.0306439
0.0419247
0.0441692
0.043114
0.0419567
0.0406226
0.0396616
0.0389932
0.0386181
0.0108442
0.0121309
0.0135328
0.0145932
0.0155615
0.0164897
0.0173013
0.0179926
0.0185852
0.0191383
0.0196526
0.0201094
0.0205544
0.0210078
0.0212794
0.0215243
0.0217639
0.0219616
0.022184
0.0225985
0.0231778
0.023548
0.0238732
0.0240349
0.0241521
0.024401
0.024816
0.0250985
0.0254382
0.0258948
0.026512
0.0270433
0.0273442
0.0277099
0.0281984
0.0286763
0.0291066
0.0294457
0.0297115
0.0299759
0.0302447
0.0303525
0.0302888
0.0302492
0.030391
0.0306862
0.0310537
0.0314922
0.031889
0.0322685
0.0326519
0.0330768
0.0335626
0.0342111
0.035129
0.0363698
0.0377996
0.0392587
0.0405234
0.0416694
0.0425886
0.0432548
0.0436981
0.044196
0.0446723
0.0450796
0.0450505
0.0447252
0.0435944
0.0422286
0.0411753
0.0398805
0.0389719
0.0377988
0.0374446
0.0385005
0.0415185
0.0457344
0.049581
0.0509255
0.0508565
0.0506569
0.0503677
0.0500552
0.0496263
0.0488981
0.0481158
0.0467576
0.0433228
0.034934
0.031777
0.038023
0.0390388
0.0465771
0.0449248
0.0438319
0.042673
0.0416888
0.0408789
0.040307
0.0110108
0.0120226
0.0131996
0.0141334
0.0150093
0.0158242
0.016563
0.0172173
0.0178034
0.0183476
0.0188639
0.0193541
0.0198371
0.0202894
0.0207452
0.0211632
0.0214449
0.0217009
0.0219911
0.0224763
0.0230397
0.023274
0.0235377
0.0238604
0.0242922
0.0252727
0.0263995
0.0275058
0.0280751
0.0283364
0.0304719
0.0331587
0.0330776
0.032492
0.0325429
0.0327173
0.032811
0.0327436
0.0326955
0.0327244
0.032848
0.0330159
0.0331893
0.0333737
0.0335727
0.033759
0.0339284
0.0340582
0.0341293
0.0342331
0.0344389
0.0348382
0.0353843
0.0361405
0.0372045
0.038602
0.0401517
0.0416764
0.0429459
0.044069
0.0449525
0.0456287
0.0461216
0.0466487
0.0470936
0.0474574
0.0474092
0.047103
0.0461715
0.0453493
0.0450196
0.0445261
0.0442947
0.0438196
0.0438985
0.0451903
0.0478366
0.0503881
0.051668
0.0518375
0.0517184
0.0515224
0.0511428
0.0506971
0.0499989
0.0491731
0.0483029
0.0467015
0.0424004
0.034156
0.0357204
0.0489278
0.0482945
0.0485323
0.0477941
0.0461045
0.0443738
0.043001
0.0419619
0.0412291
0.0111104
0.011927
0.0129335
0.0137704
0.014572
0.0153142
0.0160019
0.0166315
0.017214
0.0177635
0.0182904
0.0188026
0.0193064
0.0197875
0.0202622
0.0206962
0.0210692
0.0214389
0.0216834
0.0221615
0.0225806
0.023055
0.0238564
0.0253012
0.027461
0.0291283
0.0300042
0.0346646
0.0358514
0.0354467
0.0353377
0.0352621
0.0351432
0.0350725
0.035052
0.0350377
0.0349982
0.0349527
0.0349423
0.0349921
0.0350965
0.0352289
0.0353657
0.0354887
0.0355865
0.0356507
0.03568
0.0356975
0.0357395
0.0358628
0.0361396
0.0366453
0.037309
0.0382175
0.0394387
0.0409712
0.0426001
0.0441389
0.045369
0.046436
0.0472697
0.0479515
0.0484893
0.0490285
0.0494423
0.0497573
0.0496607
0.0493076
0.0486815
0.0485308
0.0489378
0.0491848
0.0494792
0.0495098
0.0499124
0.0508674
0.0519781
0.0523708
0.0519707
0.0515133
0.0513146
0.0511168
0.0508304
0.0505467
0.0499449
0.0491951
0.0482876
0.0463323
0.0401701
0.0346217
0.0402224
0.0453849
0.0561374
0.0518723
0.0490837
0.0466611
0.0447874
0.0434571
0.0425184
0.0418789
0.0111768
0.011865
0.0127449
0.0135091
0.0142553
0.0149477
0.0155991
0.0162081
0.0167833
0.0173326
0.0178656
0.01839
0.0189068
0.0194076
0.0198946
0.0203475
0.020754
0.0211461
0.0215042
0.0220857
0.0229368
0.0245582
0.027509
0.030407
0.0319568
0.0356892
0.0380462
0.0379656
0.0376913
0.0375516
0.0374735
0.0374408
0.0374211
0.0373934
0.0373584
0.0373241
0.0373208
0.0373563
0.037405
0.0374498
0.0374938
0.0375377
0.0375814
0.0376158
0.0376316
0.037618
0.0375729
0.0375282
0.0375259
0.037646
0.0379652
0.0385532
0.0393447
0.0403951
0.0417509
0.0433817
0.0450389
0.0465275
0.0476809
0.0486689
0.0494407
0.0501174
0.0507028
0.0512728
0.0516677
0.0518254
0.0515241
0.0510712
0.050813
0.0512979
0.0521684
0.0528004
0.053215
0.053401
0.0535328
0.0536425
0.0533731
0.0526569
0.0512767
0.0502593
0.0500556
0.0498697
0.049656
0.0495483
0.0492289
0.0487264
0.0477407
0.0450381
0.0373548
0.0370218
0.0511285
0.0499874
0.0508603
0.0503361
0.0483075
0.0463598
0.0449289
0.0439717
0.0433424
0.0429621
0.0112484
0.0118542
0.0126339
0.0133386
0.0140366
0.0146889
0.0153089
0.0158965
0.0164589
0.0170026
0.0175365
0.0180682
0.0185994
0.0191255
0.0196467
0.020156
0.0206586
0.0212504
0.0220291
0.0234845
0.026135
0.0297527
0.0326066
0.0351405
0.0388714
0.0399245
0.0400701
0.0398411
0.0396245
0.0394682
0.0393437
0.039233
0.0391896
0.0392359
0.0393618
0.039537
0.0396277
0.0396049
0.0395735
0.039553
0.0395295
0.0394936
0.0394451
0.0393815
0.0393003
0.0391959
0.0390748
0.0389806
0.0389806
0.0391742
0.0396401
0.040412
0.0413971
0.0426067
0.0440638
0.0457524
0.0473732
0.0487275
0.049781
0.0506751
0.051389
0.0521432
0.0528061
0.0532837
0.0535539
0.0534142
0.0527379
0.0523287
0.0525301
0.0534396
0.0544055
0.0550074
0.0553446
0.0554884
0.0551988
0.0546082
0.0535313
0.05194
0.0500806
0.0489014
0.0485043
0.0481147
0.0478532
0.0479597
0.0479855
0.0476952
0.0464228
0.0411291
0.0372267
0.0405147
0.048006
0.0564393
0.0513038
0.0497682
0.0479875
0.0466013
0.0457132
0.0451772
0.044866
0.0447297
0.0113482
0.0118933
0.0125887
0.0132397
0.0138919
0.0145062
0.0150957
0.0156609
0.0162082
0.0167456
0.017288
0.0178504
0.0184471
0.0190859
0.0197844
0.0205679
0.0215238
0.0229066
0.0250478
0.0283474
0.031771
0.033929
0.0365761
0.0407127
0.0413629
0.0414668
0.0414764
0.0415131
0.0416446
0.0417695
0.0418495
0.0418897
0.0418632
0.0417805
0.0416469
0.0414721
0.0413808
0.0413123
0.0411977
0.0410598
0.0409248
0.0407985
0.0406798
0.0405617
0.0404367
0.0403001
0.0401683
0.040106
0.0402105
0.0405932
0.0413102
0.0423715
0.04353
0.0448247
0.046318
0.0480461
0.0495658
0.0507605
0.0517215
0.0525074
0.0532294
0.053858
0.0544514
0.0546987
0.0546918
0.054098
0.0532758
0.053118