/*--------------------------------*- C++ -*----------------------------------*\
| =========                 |                                                 |
| \\      /  F ield         | OpenFOAM: The Open Source CFD Toolbox           |
|  \\    /   O peration     | Version:  2.3.0                                 |
|   \\  /    A nd           | Web:      www.OpenFOAM.org                      |
|    \\/     M anipulation  |                                                 |
\*---------------------------------------------------------------------------*/
FoamFile
{
    version     2.0;
    format      ascii;
    class       volScalarField;
    location    "0.04";
    object      alphaSgs;
}
// * * * * * * * * * * * * * * * * * * * * * * * * * * * * * * * * * * * * * //

dimensions      [1 -1 -1 0 0 0 0];

internalField   nonuniform List<scalar> 
5000
(
2.85239e-08
2.51156e-08
1.70903e-08
2.46952e-08
4.04131e-08
4.98877e-08
7.16023e-08
4.7254e-08
1.96527e-08
3.63215e-08
3.24644e-08
3.60306e-08
3.37331e-08
3.37401e-08
2.52319e-08
4.15385e-08
6.3055e-08
7.98289e-08
2.67844e-08
2.34369e-08
1.98681e-08
3.15937e-08
4.21676e-08
7.46448e-08
2.74543e-08
2.19452e-08
9.61417e-09
3.05436e-08
2.98831e-08
4.71367e-08
6.07146e-08
4.68334e-08
4.45158e-08
6.29138e-08
2.90671e-08
3.24983e-08
5.1406e-08
5.92575e-08
6.98539e-08
2.51471e-08
4.38881e-08
3.75605e-08
6.11654e-08
6.22715e-08
7.28149e-08
6.08249e-08
6.12187e-08
5.08824e-08
5.688e-08
4.7281e-08
4.7302e-08
1.14513e-07
7.41212e-08
2.38661e-08
4.59491e-08
3.83502e-08
5.29509e-08
5.23727e-08
4.20634e-08
1.66575e-08
1.07583e-08
2.56988e-08
4.03865e-08
5.67949e-08
5.42017e-08
2.97948e-08
5.07077e-08
5.5168e-08
6.8912e-08
3.68629e-08
8.73963e-08
5.94027e-08
3.84629e-08
3.28421e-08
2.90875e-08
5.92122e-08
8.45986e-08
1.00598e-07
1.05307e-08
1.16799e-08
1.38941e-08
2.34967e-08
3.42936e-08
3.52501e-08
3.53321e-08
4.09094e-08
4.60562e-08
7.45127e-08
8.26716e-08
7.48828e-09
7.25769e-09
3.98166e-09
1.33462e-08
2.2154e-08
3.32793e-08
1.82964e-08
2.74037e-08
1.20445e-08
9.81219e-08
4.27832e-08
2.83291e-07
4.61013e-08
8.34905e-08
6.30369e-08
3.03026e-08
8.93552e-08
1.47414e-07
1.45263e-07
1.04784e-07
7.95459e-08
3.99212e-08
4.7579e-08
2.37557e-08
6.57842e-08
1.30361e-08
4.55228e-08
6.92781e-08
9.2803e-08
1.67542e-08
5.05143e-08
5.72899e-08
6.02094e-08
1.15834e-07
1.85449e-07
1.21534e-07
8.92347e-08
7.56189e-08
1.19898e-07
1.31224e-07
8.01679e-08
1.02621e-07
7.95649e-08
1.00075e-07
1.19194e-07
7.85161e-08
2.09427e-08
5.53484e-08
9.69413e-08
1.66937e-07
1.46177e-07
6.71852e-08
9.49304e-08
1.04384e-07
1.30019e-07
1.57647e-07
1.8244e-07
1.35584e-07
9.90183e-08
2.20681e-07
1.60161e-07
1.16342e-07
1.85015e-07
2.05075e-07
1.3033e-07
1.51165e-07
1.13838e-07
1.16304e-07
1.14369e-07
9.30313e-08
7.58049e-08
6.70219e-08
6.71016e-08
9.13802e-08
1.14037e-07
1.39327e-07
9.64623e-08
7.81684e-08
7.59787e-08
9.76048e-08
1.29106e-07
1.00342e-07
1.13892e-07
2.3255e-07
2.54166e-07
2.7652e-07
2.30925e-07
2.59976e-07
2.15614e-07
1.00139e-07
6.06231e-08
3.37626e-08
4.25043e-08
8.50541e-08
1.37013e-07
1.71566e-07
1.7387e-07
1.83122e-07
2.33101e-07
2.76165e-07
1.35962e-07
4.82714e-09
8.51858e-09
2.57538e-08
6.32354e-08
4.60978e-08
7.16667e-08
4.81911e-08
9.82346e-08
1.29962e-07
1.06093e-07
1.15821e-07
2.07309e-07
3.21869e-07
3.10322e-07
2.04322e-07
1.64915e-07
1.79444e-07
1.57759e-07
9.34682e-08
1.41112e-07
8.79263e-08
5.64044e-08
3.42871e-08
5.90985e-08
5.57237e-08
4.34252e-08
9.28804e-08
1.47188e-07
1.01367e-07
4.45899e-08
3.49189e-08
8.86327e-08
1.42331e-07
2.40622e-07
2.5646e-07
4.53836e-08
6.53452e-08
1.72055e-07
2.58491e-07
1.65577e-07
1.55741e-07
9.95178e-08
1.02958e-07
1.24805e-07
1.90392e-07
3.45874e-08
1.05656e-07
1.87693e-07
2.73664e-07
2.37293e-07
3.64705e-08
1.00005e-08
1.51137e-08
3.6406e-08
5.48924e-08
7.12731e-08
7.2042e-08
1.05851e-07
1.44534e-07
4.12526e-07
4.52535e-07
4.65374e-07
4.00143e-07
3.17597e-07
2.4565e-07
5.24712e-08
3.3075e-08
1.6315e-08
3.95621e-08
8.38075e-08
1.54053e-07
1.89108e-07
2.52091e-07
2.55495e-07
2.12597e-07
1.62295e-07
1.58605e-07
1.50575e-07
1.21169e-07
8.72855e-08
6.59712e-08
6.07921e-08
8.84327e-08
1.99069e-07
5.37687e-07
7.03264e-07
7.58621e-07
5.16613e-07
1.35253e-07
2.91246e-08
3.2706e-09
1.48421e-08
7.51304e-08
1.76646e-07
2.60047e-07
3.17331e-07
3.88318e-07
4.07296e-07
4.33389e-07
2.57909e-07
2.14114e-08
8.34821e-09
1.78995e-08
5.17674e-08
6.94533e-08
6.54603e-08
6.54851e-08
2.86847e-08
6.84554e-08
2.85675e-08
8.18089e-07
1.6423e-07
9.23385e-08
1.7848e-07
3.22796e-07
2.73382e-07
2.79666e-07
2.15656e-07
1.95183e-07
1.23358e-07
1.25372e-07
5.59183e-08
2.19529e-08
4.67422e-08
6.53767e-08
9.19845e-08
1.10798e-07
1.56846e-07
1.54037e-07
1.82509e-07
1.67034e-07
2.54418e-07
3.6762e-07
3.69837e-07
3.939e-07
5.20982e-08
5.47585e-08
2.09482e-07
3.44174e-07
2.98805e-07
2.37527e-07
1.54229e-07
1.62236e-07
2.5873e-07
1.75395e-07
1.08878e-07
1.88605e-07
3.15797e-07
4.30295e-07
2.35084e-07
2.66638e-08
2.93524e-08
3.31865e-08
6.56137e-08
6.66348e-08
6.93166e-08
5.02638e-08
4.74572e-08
6.76218e-08
1.1819e-07
5.13882e-07
9.00134e-07
8.94506e-07
7.49013e-07
3.72784e-07
6.06739e-08
3.1127e-08
3.87855e-08
5.55478e-08
6.01555e-08
1.3779e-07
2.8952e-07
4.21898e-07
3.95247e-07
3.93044e-07
2.02402e-07
1.66672e-07
9.71742e-08
6.22029e-08
5.13768e-08
2.89589e-08
3.82507e-08
7.78812e-08
1.00039e-07
4.72354e-07
6.3974e-07
1.14544e-06
1.10769e-06
4.9647e-07
2.14131e-07
1.26615e-07
1.44185e-07
1.77754e-07
1.87395e-07
2.65769e-07
3.39849e-07
5.66625e-07
6.60714e-07
6.49735e-07
3.91789e-07
3.9013e-08
2.78589e-08
1.35207e-08
2.63353e-08
4.34013e-08
8.69955e-08
7.61448e-08
1.01961e-07
7.86466e-08
1.29923e-07
5.31176e-07
1.0489e-07
2.91729e-07
5.21295e-08
1.81513e-07
1.29454e-07
1.53442e-07
1.5717e-07
1.6417e-07
1.61984e-07
1.77625e-07
6.30386e-08
7.4289e-08
8.08902e-08
1.81694e-07
2.47561e-08
1.61757e-07
2.50189e-07
2.96189e-07
5.04271e-08
1.33369e-07
2.03083e-07
3.33332e-07
6.47876e-07
6.11479e-07
1.71185e-07
2.00361e-07
2.96064e-07
4.29893e-07
3.15256e-07
6.27799e-08
8.5555e-08
2.03895e-07
4.92393e-07
6.53913e-07
3.91583e-07
4.54093e-07
4.9558e-07
5.49284e-07
4.14958e-07
9.87331e-08
1.45675e-08
1.67567e-08
3.70921e-08
5.14983e-08
5.62559e-08
5.25849e-08
5.32411e-08
5.7762e-08
6.51042e-08
1.39831e-07
6.72872e-07
1.33904e-06
1.44939e-06
1.11947e-06
1.21332e-07
4.04499e-08
2.66474e-08
3.70225e-08
3.88576e-08
2.7436e-08
1.50886e-07
4.56164e-07
5.6032e-07
5.91639e-07
2.64185e-07
1.60307e-07
7.58107e-08
4.46065e-08
3.07101e-08
3.1648e-08
4.81126e-08
6.5922e-08
1.02893e-07
8.31318e-08
4.28227e-07
1.00396e-06
1.52408e-06
9.14751e-07
4.95128e-07
1.5294e-07
1.47843e-07
1.66399e-07
2.76508e-07
3.3464e-07
3.55731e-07
6.18043e-07
9.23919e-07
8.79016e-07
6.77163e-07
5.11662e-08
1.79089e-08
9.64352e-09
2.0441e-08
5.81338e-08
8.71684e-08
1.10172e-07
6.92376e-08
8.7391e-08
1.06119e-07
3.5636e-07
3.82228e-07
1.03716e-07
2.55266e-07
4.43377e-07
4.03274e-07
3.43357e-07
3.00989e-07
2.84121e-07
2.16716e-07
2.27855e-07
6.99216e-08
6.93323e-08
7.39413e-08
1.79112e-07
1.30642e-07
1.93929e-07
3.21383e-07
5.3617e-07
2.8847e-07
1.86805e-07
1.74736e-07
2.83163e-07
1.08593e-06
1.98382e-06
1.08332e-06
5.26534e-07
4.3193e-07
5.15672e-07
4.20072e-07
9.10282e-08
8.73892e-08
1.08241e-07
2.91221e-07
1.12958e-06
1.00136e-06
7.41183e-07
6.99646e-07
6.65881e-07
5.85795e-07
2.75224e-07
1.3969e-07
6.96297e-08
7.6437e-08
7.13981e-08
7.94343e-08
7.86428e-08
7.31978e-08
6.81263e-08
7.44154e-08
4.40357e-08
2.92545e-07
1.08811e-06
1.61607e-06
1.00933e-06
4.26764e-07
1.4442e-08
5.07006e-08
6.91685e-08
5.49705e-08
3.1466e-08
9.02067e-08
3.57081e-07
7.16582e-07
7.35531e-07
2.99665e-07
1.43171e-07
5.89367e-08
3.63784e-08
3.1658e-08
4.18399e-08
6.62543e-08
1.00555e-07
1.29672e-07
1.49728e-07
3.46318e-07
5.03503e-07
1.26521e-06
2.01829e-06
7.68176e-07
1.05134e-07
8.76286e-08
9.03929e-08
1.78105e-07
3.0406e-07
3.63547e-07
6.40951e-07
1.07578e-06
1.06816e-06
1.04609e-06
5.94024e-08
1.4662e-08
4.12131e-09
1.4631e-08
3.86097e-08
7.68729e-08
1.03332e-07
8.56187e-08
1.0179e-07
1.7139e-07
4.40508e-07
1.13911e-07
1.9065e-07
1.07622e-07
4.77792e-08
2.11802e-07
4.64661e-07
4.66126e-07
4.36376e-07
3.84256e-07
3.3387e-07
1.45677e-07
1.2179e-07
1.20531e-07
1.01698e-07
1.76739e-07
2.10945e-07
3.12302e-07
4.35866e-07
2.17e-07
1.02926e-07
8.49436e-08
1.1964e-07
2.11664e-07
1.50114e-06
2.29837e-06
2.15442e-06
8.94155e-07
7.47885e-07
6.32829e-07
9.06558e-08
3.39918e-08
4.75692e-08
1.31769e-07
2.47264e-07
1.36309e-06
1.56325e-06
1.17943e-06
8.07845e-07
8.18777e-07
4.59235e-07
1.62748e-07
5.52011e-08
4.51735e-08
5.82652e-08
9.02592e-08
7.75862e-08
8.94162e-08
9.78735e-08
7.73219e-08
4.56182e-08
1.31751e-07
6.79593e-07
1.55004e-06
1.6721e-06
1.33026e-06
2.12908e-08
3.49585e-08
6.88828e-08
5.09861e-08
4.92196e-08
7.09983e-08
3.49266e-07
8.38169e-07
8.12905e-07
2.85495e-07
1.11525e-07
4.66655e-08
3.22373e-08
3.35349e-08
4.97037e-08
7.82524e-08
1.81982e-07
2.14591e-07
3.11089e-07
2.37788e-07
1.41966e-07
7.22703e-07
1.58366e-06
1.6202e-06
6.50701e-07
8.90488e-08
8.00291e-08
1.60781e-07
2.67668e-07
2.26544e-07
4.79704e-07
9.4807e-07
1.27576e-06
1.39637e-06
9.14044e-08
1.03454e-08
6.11487e-09
1.66244e-08
4.53242e-08
7.3942e-08
9.36511e-08
7.13767e-08
1.10876e-07
1.47629e-07
1.69959e-06
1.4962e-08
4.86657e-07
3.36255e-07
3.86892e-07
4.38882e-07
4.22874e-07
2.49845e-07
3.48988e-07
2.5252e-07
2.86958e-07
1.67573e-07
2.00711e-07
2.67691e-07
5.02839e-07
2.82964e-07
4.60162e-07
4.676e-07
8.07931e-07
1.22399e-07
8.36426e-08
6.12248e-08
6.52753e-08
1.21164e-07
1.6665e-07
1.47936e-06
1.89652e-06
2.08104e-06
1.89574e-06
1.6478e-06
2.01031e-07
7.53947e-08
7.16156e-08
9.10714e-08
1.17686e-07
4.21278e-07
1.50762e-06
1.97244e-06
1.35845e-06
1.5466e-06
5.93005e-07
1.98271e-07
5.94895e-08
5.3951e-08
6.8129e-08
8.29268e-08
1.03264e-07
9.74584e-08
9.92088e-08
8.7162e-08
4.53163e-08
4.12907e-08
2.52981e-07
1.01892e-06
1.91801e-06
6.70728e-07
4.46556e-07
5.52128e-08
1.19567e-07
1.37865e-07
6.82389e-08
5.74727e-08
4.12602e-07
9.44929e-07
8.99188e-07
3.11484e-07
1.14339e-07
5.5432e-08
4.20852e-08
4.5338e-08
5.54218e-08
1.06539e-07
2.61177e-07
2.96746e-07
5.06642e-07
4.30147e-07
5.43478e-07
7.60715e-07
1.24399e-06
1.4459e-06
8.33173e-07
1.81299e-08
5.14473e-08
1.44183e-07
2.63088e-07
2.50444e-07
2.30238e-07
8.22139e-07
1.65203e-06
1.62353e-06
1.66544e-07
2.79558e-08
9.3845e-09
1.99042e-08
4.00429e-08
7.27169e-08
1.06116e-07
1.48112e-07
1.12294e-07
4.33228e-07
3.63001e-07
3.46443e-07
2.69146e-07
2.25828e-07
1.53435e-07
1.80306e-07
2.29143e-07
8.68898e-08
2.56572e-07
1.97872e-07
8.56743e-08
1.31219e-07
8.14304e-08
1.41625e-07
3.00985e-07
6.07766e-07
4.66248e-07
4.11123e-07
4.16012e-07
3.36158e-07
1.5788e-07
6.53322e-08
8.29831e-08
9.08107e-08
1.30539e-07
6.4526e-07
1.05161e-06
1.86462e-06
2.36476e-06
2.44971e-06
6.44408e-07
1.65069e-07
1.20275e-07
1.55806e-07
1.54372e-07
1.8655e-07
6.53812e-07
1.67552e-06
1.85418e-06
1.78074e-06
1.06194e-06
2.30868e-07
6.57021e-08
5.15136e-08
6.33301e-08
1.05962e-07
1.06177e-07
9.39356e-08
9.848e-08
8.55983e-08
2.0268e-08
9.66883e-09
7.81962e-08
4.80576e-07
1.80446e-06
6.67739e-07
8.639e-07
7.04102e-08
1.25948e-07
1.19275e-07
4.75774e-08
3.4269e-08
2.58576e-07
9.62151e-07
9.39273e-07
4.20254e-07
1.28541e-07
6.46913e-08
5.00547e-08
4.62147e-08
6.54005e-08
1.38868e-07
3.11143e-07
5.59538e-07
4.76509e-07
7.32183e-07
8.03605e-07
9.77604e-07
1.49249e-06
1.43108e-06
9.04768e-07
1.52071e-07
1.01127e-07
1.62065e-07
2.91872e-07
2.47002e-07
2.40788e-07
7.18263e-07
1.52131e-06
1.65687e-06
4.07165e-07
8.74194e-09
1.26625e-08
2.45147e-08
4.83097e-08
8.36234e-08
1.27169e-07
1.82771e-07
3.01421e-07
1.93708e-07
2.04315e-06
1.22047e-07
2.53139e-07
2.86565e-07
3.55214e-07
2.55448e-07
1.92997e-07
1.4138e-07
4.86867e-08
3.2928e-08
6.75928e-08
1.07102e-07
1.80477e-07
2.55508e-07
5.12951e-07
1.66174e-06
6.74784e-07
7.85775e-07
1.39484e-06
5.22961e-07
2.45655e-07
1.08627e-07
8.72722e-08
1.40602e-07
2.04353e-07
3.89151e-07
7.09449e-07
1.0163e-06
2.12513e-06
1.88506e-06
1.12102e-06
1.84039e-07
1.15432e-07
1.34386e-07
1.79409e-07
1.10043e-07
1.67907e-07
8.35715e-07
2.1798e-06
1.83766e-06
2.10579e-06
1.92341e-07
8.42634e-08
6.17068e-08
7.16779e-08
9.27064e-08
1.00356e-07
9.04479e-08
6.30544e-08
7.68924e-08
4.41596e-08
2.06574e-07
2.88817e-07
7.83506e-07
1.51841e-06
8.55729e-07
1.15608e-06
1.87591e-07
2.549e-07
1.99893e-07
4.84221e-08
2.69146e-08
2.50938e-07
9.80365e-07
9.8093e-07
6.13993e-07
1.52277e-07
6.91673e-08
5.25447e-08
4.95965e-08
7.21952e-08
1.8119e-07
4.07537e-07
6.43007e-07
8.66256e-07
9.897e-07
8.28808e-07
9.5344e-07
1.23551e-06
1.28291e-06
8.05124e-07
2.54191e-07
1.86136e-07
1.88647e-07
3.42811e-07
2.74387e-07
2.7923e-07
5.45278e-07
1.36517e-06
1.53534e-06
7.82929e-07
1.83506e-08
1.77098e-08
2.31835e-08
4.60704e-08
9.57665e-08
2.08453e-07
3.02723e-07
4.80725e-07
4.94588e-07
3.36536e-07
9.46528e-07
8.76942e-07
9.10644e-07
1.01397e-06
1.27541e-06
9.96865e-07
8.53563e-07
8.17371e-07
1.12853e-06
1.00339e-06
1.15894e-06
7.59025e-07
6.72895e-07
6.23181e-07
1.17555e-06
7.19466e-07
1.20201e-06
1.56504e-06
9.08282e-07
2.91863e-07
1.15548e-07
1.29752e-07
2.69677e-07
4.21647e-07
4.76469e-07
6.44422e-07
6.21759e-07
1.60334e-06
1.73951e-06
7.67316e-07
1.65009e-07
1.63678e-07
1.91002e-07
1.83431e-07
1.97161e-07
3.1974e-07
9.84681e-08
1.55632e-06
1.77535e-06
2.00198e-06
3.36475e-07
1.27958e-07
6.88028e-08
6.40923e-08
1.09987e-07
1.37698e-07
1.0353e-07
2.82022e-07
4.24247e-07
4.61333e-07
5.08319e-07
6.30059e-07
1.22472e-06
1.29495e-06
1.08396e-06
2.96274e-07
6.08407e-08
2.06337e-07
1.13891e-07
4.22076e-08
3.38094e-08
1.84388e-07
9.37616e-07
1.03126e-06
7.4002e-07
1.76852e-07
7.87415e-08
5.83268e-08
5.23544e-08
1.11377e-07
2.58378e-07
5.06769e-07
1.05423e-06
8.86731e-07
1.09599e-06
1.1181e-06
9.98518e-07
1.25304e-06
1.10148e-06
7.35166e-07
2.73071e-07
2.16191e-07
2.40289e-07
4.28777e-07
3.05413e-07
3.08597e-07
4.62309e-07
1.40418e-06
1.49425e-06
1.30492e-06
3.06516e-08
3.00862e-08
3.72159e-08
6.21933e-08
1.32563e-07
2.54632e-07
4.05179e-07
7.24669e-07
5.15273e-07
1.35181e-07
2.77559e-07
4.74558e-07
4.58778e-07
5.88243e-07
5.97566e-07
5.41896e-07
4.99574e-07
7.08969e-07
7.32097e-07
9.42134e-07
7.79503e-07
5.70479e-07
5.70513e-07
7.9591e-07
5.06022e-07
1.06947e-06
1.73353e-06
1.51407e-06
8.64229e-07
2.81015e-07
1.41984e-07
1.56987e-07
4.6897e-07
6.57257e-07
1.07706e-06
1.02604e-06
1.17653e-06
1.98609e-06
1.67242e-06
1.12632e-06
1.58284e-07
1.48457e-07
3.21626e-07
3.98062e-07
2.33892e-07
3.73463e-07
2.3004e-07
1.21971e-06
2.41799e-06
1.8002e-06
6.82768e-07
1.34692e-07
6.49517e-08
7.52115e-08
1.50411e-07
3.23402e-07
5.04534e-07
8.50071e-07
7.52874e-07
6.82927e-07
7.56946e-07
1.07397e-06
1.53363e-06
1.0565e-06
5.73631e-07
1.03727e-07
1.0538e-07
2.08322e-07
1.59194e-07
1.92817e-08
4.68894e-08
3.27577e-07
1.016e-06
1.10278e-06
7.96153e-07
1.73926e-07
7.82617e-08
5.8476e-08
7.065e-08
1.51267e-07
3.52568e-07
6.84795e-07
6.78962e-07
1.18055e-06
1.21178e-06
1.05404e-06
1.22073e-06
1.26305e-06
1.14185e-06
6.80063e-07
3.49395e-07
2.66139e-07
3.07264e-07
4.68446e-07
5.8638e-07
4.86575e-07
7.10254e-07
1.34835e-06
1.41646e-06
1.36172e-06
6.90233e-08
6.74942e-08
6.4682e-08
9.14487e-08
1.87795e-07
3.75556e-07
6.11519e-07
8.13368e-07
7.42565e-07
2.9795e-09
9.68455e-09
4.22961e-08
5.88929e-08
1.35942e-08
6.70159e-08
1.62525e-07
3.28552e-07
3.47058e-07
2.95928e-07
2.21164e-07
2.20591e-07
4.08289e-07
5.33182e-07
4.41321e-07
7.47525e-07
1.36058e-06
1.64087e-06
1.23536e-06
5.94002e-07
2.91707e-07
2.89468e-07
2.24544e-07
5.24853e-07
9.73936e-07
1.23133e-06
7.02295e-07
1.59824e-06
1.94214e-06
1.20283e-06
4.44255e-07
2.09634e-07
2.48127e-07
5.83188e-07
6.56065e-07
4.64969e-07
5.35809e-07
3.94793e-07
1.13377e-06
2.35583e-06
1.68021e-06
7.16686e-07
1.272e-07
8.44146e-08
8.00716e-08
3.55909e-07
8.20477e-07
1.0351e-06
1.11837e-06
8.93852e-07
8.70332e-07
9.83107e-07
1.32452e-06
1.20174e-06
5.17023e-07
3.20985e-07
1.73078e-07
9.95822e-08
2.09769e-07
3.14415e-07
2.08746e-07
2.23346e-07
4.9712e-07
1.12979e-06
1.11165e-06
8.37541e-07
1.45771e-07
7.79771e-08
6.35613e-08
8.12539e-08
2.3807e-07
4.45656e-07
6.41506e-07
1.17563e-06
1.02064e-06
1.44013e-06
1.40231e-06
1.57444e-06
1.38987e-06
1.05213e-06
5.83526e-07
3.96022e-07
3.36102e-07
4.8007e-07
6.31781e-07
8.13813e-07
9.58796e-07
8.41154e-07
1.38354e-06
1.5781e-06
1.3309e-06
1.87865e-07
1.50333e-07
1.13177e-07
1.49381e-07
2.71242e-07
4.76857e-07
7.77337e-07
1.14196e-06
8.7609e-07
1.17301e-07
8.83176e-08
1.28929e-07
1.50207e-07
1.27704e-07
1.31146e-07
1.36383e-07
2.09244e-07
1.90014e-07
1.96667e-07
1.39502e-07
1.6307e-07
2.5238e-07
4.06023e-07
5.12923e-07
6.55981e-07
7.99477e-07
7.68783e-07
7.54497e-07
4.22862e-07
5.00697e-07
2.12883e-07
1.05928e-07
5.70373e-07
1.01169e-06
7.39072e-07
1.05905e-06
1.43736e-06
1.02175e-06
6.91072e-07
3.73156e-07
2.57197e-07
4.79792e-07
1.10164e-06
9.76171e-07
1.19755e-06
5.09861e-07
4.47115e-07
1.07346e-06
2.2012e-06
1.36358e-06
4.49691e-07
1.24531e-07
8.80433e-08
2.70109e-07
8.66029e-07
1.17552e-06
1.36546e-06
1.12728e-06
9.7992e-07
1.06718e-06
1.25398e-06
1.21528e-06
7.30579e-07
4.84069e-07
4.32733e-07
6.17322e-07
5.10392e-07
7.66737e-07
5.51551e-07
5.61239e-07
4.44944e-07
7.4096e-07
1.26236e-06
1.15893e-06
5.17286e-07
1.26019e-07
8.12072e-08
6.83341e-08
1.31108e-07
2.77272e-07
4.32121e-07
6.54019e-07
7.8227e-07
1.49503e-06
1.86198e-06
1.47067e-06
1.3615e-06
1.15042e-06
9.62877e-07
6.12864e-07
4.21739e-07
4.81519e-07
5.91172e-07
9.05333e-07
8.32698e-07
1.18936e-06
1.10311e-06
1.48448e-06
1.53138e-06
1.35402e-06
3.60377e-07
2.55059e-07
1.84451e-07
1.97808e-07
3.34389e-07
6.20463e-07
9.85197e-07
8.70899e-07
1.1844e-06
6.03057e-08
1.71585e-08
9.13817e-08
4.2428e-08
6.80798e-09
2.99394e-08
6.25498e-09
6.20572e-08
7.31647e-08
4.51711e-08
7.96986e-09
7.00744e-08
1.87802e-07
2.97701e-07
3.4134e-07
3.67983e-07
5.15083e-07
4.92705e-07
4.1871e-07
4.28158e-07
2.84009e-07
1.31402e-07
7.04108e-07
7.90134e-07
9.27923e-07
1.14978e-06
8.19998e-07
9.42209e-07
4.92376e-07
5.30868e-07
4.19325e-07
2.88571e-07
8.04144e-07
6.76635e-07
1.10344e-06
1.12791e-06
7.30115e-07
6.61756e-07
1.33105e-06
2.24719e-06
1.47475e-06
3.55069e-07
1.21142e-07
7.13084e-08
4.61883e-07
1.12077e-06
1.36521e-06
1.41274e-06
1.12354e-06
1.08828e-06
1.10946e-06
1.06601e-06
7.21255e-07
4.4178e-07
4.4194e-07
9.5762e-07
1.1022e-06
1.05918e-06
1.07629e-06
7.34777e-07
6.10343e-07
5.7573e-07
8.69655e-07
1.30288e-06
1.06971e-06
3.49491e-07
1.33926e-07
9.34185e-08
8.39205e-08
1.83669e-07
2.96868e-07
3.74657e-07
5.57416e-07
7.87878e-07
1.10389e-06
1.58106e-06
1.41094e-06
1.22005e-06
8.86945e-07
7.73596e-07
6.03506e-07
4.81761e-07
6.13155e-07
9.44313e-07
1.11624e-06
8.92964e-07
1.16693e-06
1.30414e-06
1.586e-06
1.72983e-06
1.42441e-06
6.22181e-07
3.49556e-07
2.21455e-07
2.57545e-07
3.50665e-07
7.81165e-07
1.08012e-06
1.28054e-06
1.40315e-06
1.2872e-07
5.60824e-08
9.9805e-08
8.80741e-08
8.45458e-08
8.08737e-08
7.96981e-08
7.15024e-08
6.2275e-08
9.94198e-08
6.38547e-08
4.46501e-08
1.2718e-07
2.02283e-07
2.52385e-07
3.07042e-07
2.56272e-07
7.98161e-08
6.45162e-08
1.78788e-07
8.81114e-08
5.88788e-07
5.00432e-07
7.17001e-07
5.28333e-07
5.53361e-07
7.55263e-07
7.84099e-07
4.44229e-07
4.47954e-07
3.94284e-07
4.57786e-07
1.15372e-06
1.01043e-06
1.31993e-06
1.26251e-06
8.29119e-07
9.63336e-07
1.62239e-06
1.97907e-06
1.07599e-06
3.04632e-07
9.58676e-08
9.52206e-08
7.07497e-07
1.25015e-06
1.27398e-06
1.32002e-06
1.08755e-06
1.04892e-06
8.66825e-07
6.32814e-07
4.16924e-07
4.02317e-07
8.52178e-07
9.29082e-07
1.28608e-06
1.25442e-06
1.03387e-06
8.14832e-07
7.99743e-07
8.44791e-07
1.15919e-06
1.36915e-06
9.75438e-07
2.83031e-07
1.45672e-07
9.81744e-08
1.34426e-07
2.38266e-07
3.43395e-07
3.89437e-07
5.60828e-07
8.7036e-07
1.09085e-06
1.82392e-06
1.53899e-06
1.08587e-06
7.91951e-07
7.00046e-07
5.40457e-07
4.43508e-07
6.84473e-07
1.26485e-06
1.24515e-06
1.23192e-06
1.24383e-06
1.29885e-06
1.68361e-06
1.99526e-06
1.48702e-06
6.85217e-07
3.68803e-07
2.51828e-07
2.18004e-07
4.19807e-07
8.611e-07
1.18141e-06
1.22515e-06
1.44897e-06
7.61411e-08
2.34682e-08
7.67212e-08
2.1124e-08
1.00447e-09
2.0298e-08
2.39563e-08
4.79678e-08
5.5496e-08
4.64191e-08
3.41075e-08
5.02899e-08
1.04185e-07
1.68858e-07
2.17721e-07
2.23086e-07
2.48749e-07
1.38919e-07
3.23795e-07
3.45412e-07
4.69695e-07
5.96393e-07
8.15386e-07
4.8387e-07
5.05622e-07
3.6967e-07
3.30176e-07
1.70038e-07
1.90425e-07
3.40883e-07
3.94046e-07
6.1941e-07
1.12072e-06
9.90212e-07
1.38151e-06
1.35077e-06
1.06477e-06
1.42772e-06
1.95262e-06
1.58852e-06
6.74718e-07
2.21432e-07
9.2751e-08
2.71842e-07
1.15349e-06
9.10645e-07
1.26808e-06
9.04514e-07
7.91421e-07
6.4699e-07
4.57913e-07
3.4797e-07
2.88152e-07
5.03811e-07
1.0801e-06
9.9378e-07
1.23266e-06
1.23221e-06
1.06919e-06
8.57276e-07
9.14974e-07
1.08834e-06
1.47779e-06
1.18914e-06
5.4147e-07
2.26185e-07
1.36955e-07
1.20243e-07
2.02638e-07
2.99288e-07
3.3498e-07
4.04934e-07
5.51869e-07
6.79719e-07
1.16651e-06
1.32927e-06
1.362e-06
1.07514e-06
7.97083e-07
6.70198e-07
5.28822e-07
4.80333e-07
7.53256e-07
1.35943e-06
1.37528e-06
1.36e-06
1.31401e-06
1.36183e-06
1.74404e-06
2.0047e-06
1.28836e-06
6.69309e-07
3.6207e-07
2.57457e-07
2.69014e-07
5.59938e-07
9.92884e-07
1.20496e-06
1.13796e-06
1.4115e-06
1.39485e-08
6.23886e-08
7.80719e-08
6.11547e-08
6.87704e-08
1.82459e-08
6.76766e-08
8.5658e-08
9.01543e-08
9.82384e-08
9.22596e-08
1.04005e-07
1.36706e-07
1.64478e-07
1.87811e-07
1.93207e-07
1.8343e-07
2.35151e-07
2.10212e-07
3.77316e-07
5.10028e-07
5.2389e-07
4.52012e-07
5.42536e-07
4.01417e-07
2.75013e-07
2.06862e-07
8.92065e-08
1.2666e-07
3.6989e-07
4.31058e-07
6.03275e-07
7.91906e-07
1.02169e-06
1.44774e-06
1.43482e-06
1.19882e-06
1.69048e-06
1.90891e-06
1.07967e-06
4.79057e-07
2.01791e-07
1.6249e-07
4.6158e-07
9.30437e-07
7.58674e-07
9.59162e-07
6.02375e-07
4.60304e-07
3.82982e-07
2.56934e-07
2.41256e-07
2.14198e-07
6.6046e-07
9.64405e-07
1.08003e-06
1.43335e-06
1.28962e-06
1.15399e-06
1.03849e-06
1.10325e-06
1.28174e-06
1.45044e-06
1.00502e-06
4.30431e-07
2.23388e-07
1.63051e-07
1.47016e-07
2.47073e-07
3.1937e-07
3.35035e-07
3.74816e-07
5.01918e-07
8.37042e-07
7.6047e-07
1.17529e-06
1.20758e-06
9.59416e-07
7.07236e-07
6.44657e-07
4.86846e-07
5.4881e-07
9.21099e-07
1.18474e-06
1.39854e-06
1.53555e-06
1.66914e-06
1.48995e-06
1.63396e-06
1.68452e-06
1.02607e-06
5.97047e-07
3.33093e-07
2.34969e-07
3.73499e-07
6.53777e-07
1.02162e-06
1.22456e-06
1.22469e-06
1.52279e-06
1.1333e-07
2.13039e-08
1.11995e-07
8.74556e-08
1.05584e-07
1.49905e-07
1.82684e-07
2.02487e-07
2.03284e-07
2.05221e-07
1.80804e-07
1.8137e-07
1.97122e-07
2.05936e-07
1.89296e-07
1.5265e-07
1.51999e-07
1.82392e-07
3.73727e-07
4.15875e-07
5.06019e-07
5.64389e-07
6.61932e-07
5.40284e-07
3.99311e-07
2.49066e-07
1.43994e-07
7.10089e-08
1.57323e-07
2.85514e-07
3.16682e-07
4.40628e-07
6.32176e-07
1.00187e-06
1.69516e-06
1.41757e-06
1.12659e-06
1.11375e-06
1.03412e-06
7.22976e-07
4.27155e-07
2.31147e-07
3.04097e-07
5.75733e-07
6.96563e-07
6.07283e-07
7.29124e-07
4.534e-07
3.16647e-07
2.62566e-07
2.32699e-07
2.96793e-07
4.44056e-07
6.72924e-07
7.87703e-07
1.0109e-06
1.28787e-06
1.36076e-06
1.28819e-06
1.16075e-06
1.24079e-06
1.23562e-06
1.03542e-06
6.23782e-07
3.8873e-07
2.69699e-07
1.8617e-07
1.81159e-07
2.90743e-07
3.36163e-07
3.90647e-07
4.36356e-07
5.109e-07
5.77947e-07
9.85459e-07
8.0168e-07
8.37592e-07
7.01455e-07
5.47285e-07
4.59121e-07
4.66829e-07
5.8847e-07
9.38864e-07
1.17858e-06
1.55879e-06
1.67108e-06
1.58751e-06
1.86968e-06
1.62499e-06
1.34001e-06
8.31981e-07
5.03358e-07
3.07549e-07
2.2219e-07
4.28448e-07
7.37367e-07
8.10043e-07
1.17315e-06
1.35575e-06
1.63349e-06
2.63796e-07
2.69275e-07
3.23937e-07
3.87116e-07
4.22343e-07
4.05055e-07
3.84413e-07
3.59741e-07
3.31151e-07
3.02768e-07
2.65313e-07
2.54335e-07
2.47624e-07
2.30779e-07
1.94114e-07
1.37646e-07
9.30364e-08
9.65247e-08
2.6405e-07
3.74938e-07
4.82152e-07
5.31447e-07
5.23495e-07
5.10348e-07
3.79449e-07
2.43204e-07
1.24041e-07
2.86322e-08
8.01268e-08
2.48316e-07
3.37556e-07
4.50048e-07
5.52881e-07
1.02388e-06
1.46419e-06
9.87318e-07
8.02689e-07
7.29595e-07
4.20133e-07
4.79644e-07
3.14315e-07
2.7053e-07
3.76781e-07
5.88838e-07
5.04631e-07
5.01549e-07
4.73424e-07
3.33284e-07
2.7989e-07
2.52122e-07
2.73268e-07
3.57271e-07
4.315e-07
6.27626e-07
6.91206e-07
9.08839e-07
9.45315e-07
1.18712e-06
1.1794e-06
1.04457e-06
9.88488e-07
9.21306e-07
6.79524e-07
4.55417e-07
4.04627e-07
2.61599e-07
2.10034e-07
2.70634e-07
3.38297e-07
3.96028e-07
3.96325e-07
3.99685e-07
4.80308e-07
5.38416e-07
5.82421e-07
6.53682e-07
6.47217e-07
5.00967e-07
4.09349e-07
4.23812e-07
4.69563e-07
6.45934e-07
8.83301e-07
1.15637e-06
1.46119e-06
1.70402e-06
1.73409e-06
1.92904e-06
1.60832e-06
1.0283e-06
6.60786e-07
4.4745e-07
3.12517e-07
3.53032e-07
5.67076e-07
7.39924e-07
7.86807e-07
1.0047e-06
1.32087e-06
1.75577e-06
5.21747e-07
7.10375e-07
7.02686e-07
6.08806e-07
5.89174e-07
5.51795e-07
4.93901e-07
4.53996e-07
4.09662e-07
3.84221e-07
3.60976e-07
3.4504e-07
3.31451e-07
2.97691e-07
2.4417e-07
1.71131e-07
1.07716e-07
7.79127e-08
3.471e-07
4.62417e-07
6.18525e-07
6.70877e-07
6.61317e-07
5.53453e-07
3.84658e-07
2.59178e-07
1.45997e-07
4.99685e-08
1.20239e-07
2.75632e-07
3.59757e-07
4.13047e-07
4.93379e-07
5.4204e-07
1.94672e-07
8.1278e-07
8.91476e-07
4.18668e-07
2.6558e-07
3.97284e-07
3.21086e-07
2.97777e-07
6.01841e-07
6.20819e-07
4.93113e-07
4.50268e-07
4.15361e-07
3.14909e-07
2.56035e-07
2.48476e-07
2.82526e-07
3.69302e-07
4.48459e-07
5.2448e-07
6.79429e-07
7.91309e-07
1.00376e-06
1.06044e-06
1.05194e-06
9.2121e-07
7.58939e-07
6.50495e-07
4.60804e-07
3.80891e-07
3.4743e-07
2.38185e-07
2.89694e-07
3.86054e-07
4.24657e-07
4.33994e-07
4.57515e-07
4.80978e-07
4.96164e-07
5.24646e-07
5.2751e-07
4.88876e-07
3.9917e-07
3.72171e-07
3.41193e-07
4.28908e-07
5.2144e-07
6.92021e-07
9.51853e-07
1.17643e-06
1.51522e-06
1.84881e-06
1.78695e-06
1.70478e-06
1.2157e-06
8.00085e-07
5.70868e-07
4.61721e-07
3.68181e-07
4.72904e-07
5.72483e-07
7.76245e-07
8.12689e-07
1.00795e-06
1.35832e-06
1.94729e-06
1.72138e-07
5.61016e-07
3.75542e-07
3.64549e-07
5.03468e-07
5.25159e-07
5.49558e-07
5.18066e-07
4.71553e-07
4.30239e-07
3.78134e-07
3.54439e-07
3.39309e-07
3.01067e-07
2.40163e-07
1.77492e-07
1.38222e-07
1.28449e-07
4.22053e-07
5.48693e-07
6.97759e-07
6.86517e-07
6.32264e-07
4.91889e-07
3.49855e-07
2.28648e-07
1.48684e-07
6.74518e-08
1.0072e-07
2.3468e-07
3.57988e-07
4.23815e-07
4.29952e-07
4.4781e-07
4.96533e-07
4.55652e-07
2.62751e-07
1.54973e-07
2.42245e-07
4.34733e-07
4.13654e-07
7.94363e-07
8.27454e-07
6.98416e-07
5.88968e-07
5.11928e-07
3.94363e-07
2.76063e-07
2.41506e-07
2.17928e-07
2.53804e-07
3.25454e-07
3.79982e-07
5.01727e-07
5.65839e-07
7.13844e-07
9.02761e-07
9.7088e-07
1.00876e-06
7.69136e-07
5.99609e-07
5.23468e-07
3.71394e-07
3.89515e-07
2.59868e-07
3.08872e-07
4.44112e-07
4.76689e-07
5.09992e-07
5.11623e-07
4.83593e-07
4.70433e-07
5.0707e-07
4.95429e-07
4.8105e-07
4.61367e-07
3.15848e-07
2.79163e-07
3.29274e-07
4.53051e-07
5.60903e-07
7.20349e-07
9.39486e-07
1.17655e-06
1.53495e-06
1.65847e-06
1.59318e-06
1.29665e-06
8.13638e-07
6.55414e-07
5.36213e-07
4.98631e-07
4.76639e-07
5.61152e-07
7.1825e-07
8.04057e-07
8.37926e-07
1.06051e-06
1.38607e-06
1.70314e-06
2.22127e-07
1.90377e-07
1.18964e-07
5.71675e-10
5.82314e-08
1.26824e-07
1.20397e-07
1.3027e-07
1.34545e-07
1.49173e-07
1.65315e-07
1.83165e-07
1.98957e-07
2.14788e-07
1.97895e-07
1.50793e-07
1.41139e-07
1.92212e-07
4.96853e-07
5.98781e-07
7.23536e-07
6.90663e-07
5.7457e-07
4.47032e-07
3.23342e-07
2.16939e-07
1.43609e-07
7.61124e-08
7.23405e-08
1.7283e-07
2.72148e-07
3.68836e-07
4.69489e-07
5.29424e-07
4.30017e-07
3.84464e-07
3.2745e-07
4.06727e-07
2.62506e-07
6.11251e-07
8.70173e-07
1.1738e-06
9.9806e-07
8.94943e-07
6.72418e-07
5.6362e-07
3.85939e-07
2.59217e-07
2.10116e-07
1.91139e-07
2.38237e-07
3.11901e-07
3.9546e-07
4.43134e-07
4.94928e-07
5.63734e-07
6.35123e-07
8.45211e-07
8.39342e-07
7.79628e-07
6.62987e-07
5.5598e-07
3.62623e-07
3.53497e-07
3.97309e-07
5.09983e-07
5.62172e-07
5.83594e-07
5.8518e-07
5.84214e-07
5.21242e-07
5.22813e-07
5.15725e-07
4.94923e-07
4.65192e-07
3.47958e-07
2.4268e-07
2.38599e-07
3.30291e-07
4.78109e-07
5.82924e-07
7.21276e-07
9.44811e-07
1.08338e-06
1.4219e-06
1.53168e-06
1.41215e-06
1.02402e-06
6.77955e-07
5.80572e-07
5.79478e-07
4.86144e-07
5.23526e-07
6.26738e-07
6.95017e-07
7.88871e-07
8.56325e-07
1.02502e-06
1.08466e-06
1.44146e-06
3.25771e-08
1.8332e-07
5.63883e-08
1.27995e-07
4.40972e-08
3.60536e-08
8.07635e-08
7.84138e-08
5.12932e-08
6.4529e-08
4.78645e-08
5.40236e-08
6.1305e-08
6.41808e-08
6.8115e-08
2.65606e-08
4.64227e-08
1.46328e-07
3.46271e-07
3.93584e-07
4.56383e-07
4.03206e-07
3.64381e-07
3.16161e-07
2.58192e-07
2.01353e-07
1.42138e-07
8.70986e-08
7.78026e-08
1.37399e-07
1.93166e-07
2.47245e-07
3.23559e-07
3.94326e-07
4.6525e-07
5.33047e-07
5.95422e-07
6.8196e-07
6.78139e-07
1.00266e-06
1.27758e-06
1.22944e-06
1.0334e-06
8.54868e-07
7.08419e-07
5.69565e-07
4.22468e-07
3.04679e-07
2.47614e-07
2.32703e-07
2.6231e-07
3.07892e-07
3.85624e-07
4.62793e-07
4.39113e-07
4.56448e-07
4.90304e-07
5.46336e-07
5.14865e-07
4.82116e-07
4.00457e-07
3.53209e-07
3.32254e-07
4.64137e-07
6.43911e-07
7.00543e-07
6.81163e-07
6.95352e-07
6.57176e-07
6.3466e-07
5.88097e-07
5.41186e-07
5.1272e-07
4.77706e-07
4.40138e-07
3.4105e-07
2.38206e-07
2.40239e-07
3.26703e-07
4.64261e-07
5.72336e-07
6.77998e-07
8.57464e-07
1.016e-06
1.14126e-06
1.35278e-06
1.19488e-06
9.32125e-07
5.90036e-07
5.78111e-07
5.62003e-07
4.86449e-07
5.92244e-07
6.62674e-07
7.21217e-07
7.8903e-07
8.45248e-07
1.17896e-06
1.01479e-06
9.77972e-07
6.51089e-08
4.81181e-08
9.27052e-08
8.78797e-08
5.94325e-08
7.09395e-08
1.19331e-08
8.20108e-09
4.39032e-09
4.6439e-09
8.95379e-09
1.11962e-08
1.23998e-08
1.93088e-08
1.91295e-08
1.41387e-08
4.4803e-08
1.16585e-07
2.05185e-07
2.21018e-07
2.4491e-07
2.24338e-07
2.08509e-07
2.26719e-07
2.14095e-07
1.9251e-07
1.48143e-07
1.17235e-07
1.11934e-07
1.52087e-07
1.85715e-07
2.31068e-07
2.48603e-07
3.123e-07
3.89472e-07
5.08532e-07
7.58209e-07
1.0079e-06
1.39773e-06
1.17074e-06
9.96541e-07
9.22042e-07
7.91899e-07
6.91938e-07
5.76948e-07
5.19023e-07
4.03055e-07
3.23504e-07
2.9374e-07
2.82381e-07