/*--------------------------------*- C++ -*----------------------------------*\
| =========                 |                                                 |
| \\      /  F ield         | OpenFOAM: The Open Source CFD Toolbox           |
|  \\    /   O peration     | Version:  2.3.0                                 |
|   \\  /    A nd           | Web:      www.OpenFOAM.org                      |
|    \\/     M anipulation  |                                                 |
\*---------------------------------------------------------------------------*/
FoamFile
{
    version     2.0;
    format      ascii;
    class       volScalarField;
    location    "0.04";
    object      chi;
}
// * * * * * * * * * * * * * * * * * * * * * * * * * * * * * * * * * * * * * //

dimensions      [0 0 -1 0 0 0 0];

internalField   nonuniform List<scalar> 
5000
(
1.92212e-24
1.7063e-24
6.51656e-24
2.79531e-23
1.80362e-22
6.20015e-22
2.69594e-21
4.51556e-21
4.39071e-21
2.1393e-20
6.75954e-20
2.49094e-19
6.1746e-19
1.93043e-18
6.96057e-18
6.57812e-17
5.61718e-16
3.70127e-15
6.46419e-15
3.76359e-14
1.70532e-13
1.25927e-12
4.45123e-12
9.12721e-12
1.31798e-12
6.95666e-13
1.42244e-13
1.37801e-13
6.12844e-14
1.395e-13
6.51126e-13
1.82158e-12
4.45497e-12
1.17354e-11
6.71769e-12
2.58772e-11
1.5012e-10
7.94214e-10
3.75687e-09
4.54485e-09
2.68377e-08
6.46089e-08
2.59676e-07
6.10827e-07
1.42713e-06
2.13337e-06
2.78657e-06
2.16171e-06
2.63719e-06
1.37695e-06
8.96359e-07
1.0875e-06
3.99852e-07
8.23579e-08
1.41381e-07
1.79975e-07
4.24735e-07
6.70494e-07
6.11781e-07
2.40942e-07
1.69568e-07
2.62518e-07
2.7754e-07
2.61974e-07
2.11494e-07
1.72644e-07
4.93473e-07
1.12268e-06
2.48143e-06
3.71025e-06
8.68437e-06
8.56524e-06
5.34349e-06
5.94973e-06
2.92755e-06
2.04773e-06
2.04767e-06
2.64832e-06
1.09692e-06
2.31354e-06
3.82194e-06
6.01176e-06
6.7628e-06
4.20793e-06
2.88521e-06
3.1343e-06
3.82562e-06
8.82235e-06
1.91677e-05
1.57268e-05
4.36325e-05
0.00014187
0.000361419
0.000713201
0.00119146
0.00176023
0.00248525
0.00326867
0.00442245
0.00653075
1.61263e-22
1.8416e-22
8.48047e-22
1.27446e-21
2.39433e-21
2.31141e-20
1.10195e-19
2.46215e-19
4.57785e-19
8.68046e-19
3.19662e-18
1.41124e-17
2.46074e-17
1.29436e-16
7.39828e-17
1.49574e-15
1.29986e-14
9.12877e-14
1.02529e-13
2.02416e-12
1.36616e-11
6.87866e-11
4.02744e-10
7.36834e-10
2.07403e-10
7.98759e-11
2.38226e-11
1.32229e-11
5.87021e-12
4.89385e-12
2.12418e-11
6.77331e-11
2.48783e-10
4.38415e-10
2.98727e-10
1.18862e-10
8.84216e-10
5.5312e-09
2.98457e-08
8.13803e-08
1.58438e-07
7.7062e-07
3.09869e-06
1.30025e-05
5.34177e-05
0.000193468
0.000527796
0.00105416
0.000923346
0.000408641
0.000154562
6.23839e-05
2.46528e-05
8.69938e-06
5.11083e-06
5.35705e-06
1.43233e-05
4.9068e-05
0.000111901
0.000116002
7.27432e-05
3.99426e-05
2.10734e-05
1.18958e-05
8.1911e-06
8.9646e-06
1.82699e-05
5.04851e-05
0.000152745
0.000470792
0.00143463
0.00392034
0.0076188
0.00535497
0.00220775
0.000821536
0.000309786
0.000137777
9.26837e-05
0.000118424
0.0002257
0.000515918
0.00107271
0.00135452
0.00106481
0.000652378
0.000373159
0.000190099
9.43068e-05
7.52336e-05
0.000123416
0.000352387
0.000843657
0.00161356
0.00258317
0.00382058
0.00525397
0.00702411
0.00911981
0.0147708
1.82157e-20
2.02664e-20
1.07434e-19
2.91328e-19
6.67245e-19
2.13342e-18
6.48688e-18
1.47136e-17
1.96712e-17
1.09531e-16
3.08467e-16
9.37454e-16
1.75156e-15
5.90882e-15
1.15333e-14
5.1255e-14
5.76415e-13
4.74063e-12
1.75506e-11
5.07447e-11
2.33857e-10
3.15359e-09
1.46222e-08
3.17236e-08
1.94385e-08
1.60032e-09
8.05335e-10
7.23401e-10
4.64014e-10
3.39295e-10
1.13388e-09
2.8873e-09
8.57731e-09
1.80075e-08
2.24719e-08
2.76687e-09
7.42751e-09
2.87336e-08
1.14111e-07
2.79265e-07
2.66176e-07
1.47857e-06
1.15535e-05
7.2356e-05
0.000363328
0.00139478
0.00477795
0.015425
0.0468269
0.0916061
0.0535217
0.0135515
0.00405456
0.000629138
4.23006e-05
2.24526e-05
5.22277e-05
0.00023307
0.00100899
0.00366898
0.00665544
0.00640668
0.00290463
0.000713356
0.000153222
0.000134631
0.000265549
0.00093117
0.00315589
0.00958484
0.0244657
0.0646658
0.175484
0.416401
0.5231
0.303998
0.0400023
0.00474825
0.000727892
0.00054339
0.000734966
0.00154349
0.00354804
0.00823974
0.012124
0.0117743
0.00868834
0.00273173
0.000427223
0.00020851
0.000205839
0.000407098
0.000870267
0.00165166
0.00279712
0.00441982
0.00657947
0.00905908
0.0120521
0.0203049
5.33441e-18
2.49001e-18
3.34195e-18
1.54497e-17
7.15744e-17
2.06322e-16
5.82923e-16
9.90763e-16
2.17527e-15
4.4444e-15
1.89831e-14
3.3231e-14
4.67497e-14
2.35479e-13
6.36843e-13
3.74299e-12
2.26249e-11
1.67584e-10
8.84486e-10
6.05842e-09
2.93541e-08
2.16475e-07
9.67918e-07
1.35141e-06
7.06793e-07
6.82245e-08
1.89207e-08
2.6151e-08
1.74252e-08
1.7955e-08
4.60147e-08
1.1464e-07
3.75334e-07
9.80677e-07
5.33624e-07
2.00977e-07
1.72814e-07
2.21028e-07
5.02118e-07
6.49695e-07
1.13318e-06
1.06901e-05
7.55799e-05
0.000379595
0.00133069
0.00356206
0.00798844
0.0165706
0.0417678
0.139759
0.322908
0.31824
0.118647
0.00588551
0.000187033
9.03719e-05
0.000132664
0.000341205
0.000898217
0.00270124
0.00960056
0.0145468
0.0138263
0.00611922
0.00120567
0.000837392
0.00152689
0.00476039
0.0139808
0.0329196
0.0647476
0.113903
0.195294
0.462271
1.0422
1.30998
0.8741
0.0971449
0.00487119
0.00105503
0.000904213
0.00121663
0.00233871
0.00581865
0.0164331
0.020919
0.0214797
0.0123503
0.00206417
0.000450231
0.000346301
0.000490159
0.000959101
0.0019389
0.00369962
0.00673877
0.011424
0.0177284
0.0254082
0.044834
6.80567e-16
1.63233e-16
1.21588e-15
6.14224e-16
3.95983e-15
7.55656e-15
2.22822e-14
5.06987e-14
1.33291e-13
4.31856e-13
2.19652e-12
2.16084e-12
1.13385e-11
2.11619e-11
5.36062e-11
3.77864e-11
7.33081e-10
5.57595e-09
3.27493e-08
3.12394e-08
5.43783e-07
5.51354e-06
4.26923e-05
0.000124519
5.59953e-05
8.97105e-06
2.39733e-06
9.69894e-07
5.12305e-07
3.46776e-07
4.73857e-07
3.47972e-06
2.84269e-05
0.000116657
9.28499e-05
3.1552e-05
1.255e-05
5.39654e-06
3.48836e-06
4.37768e-06
8.79583e-06
6.32031e-05
0.000369981
0.00144635
0.00402449
0.00869064
0.0157433
0.025848
0.0402503
0.0802766
0.302703
0.555337
0.535849
0.10488
0.00161072
0.000392793
0.000383715
0.000639513
0.00136942
0.00281907
0.0082363
0.0188302
0.0224738
0.0157741
0.00430858
0.00262331
0.00400892
0.0100869
0.0253566
0.0526109
0.0952193
0.16818
0.309704
0.481474
0.761507
0.989123
1.54327
0.949984
0.0599526
0.00360431
0.00136037
0.00110737
0.00165956
0.00367891
0.0130615
0.0315433
0.0372695
0.0316501
0.00765586
0.000938564
0.000590292
0.000658604
0.00122141
0.00266394
0.00571747
0.0116716
0.022327
0.0384756
0.0594276
0.102481
9.63827e-13
3.28784e-13
4.08995e-14
1.49012e-13
6.1918e-13
1.42844e-12
2.73403e-12
5.06593e-12
1.03923e-11
2.41963e-11
9.92763e-11
1.04511e-10
3.86591e-10
7.53135e-10
1.83364e-09
2.76185e-09
1.45799e-08
1.06786e-07
8.56877e-07
3.13104e-06
2.86287e-05
0.000383942
0.00492513
0.0382865
0.0175082
0.00336566
0.000571418
0.000100792
2.43737e-05
8.34336e-06
8.85884e-06
5.67039e-05
0.000637694
0.00534399
0.0167855
0.00660568
0.00193926
0.000534294
0.000119402
3.92393e-05
5.39787e-05
0.000210583
0.000931296
0.0031901
0.00830834
0.0175531
0.0323207
0.057579
0.101901
0.167858
0.350777
0.85457
1.18514
0.736506
0.0351257
0.00255883
0.00151428
0.00193131
0.00397342
0.00852927
0.0176528
0.0374635
0.0413033
0.0311056
0.00927549
0.00471379
0.00605113
0.0123381
0.0288449
0.0651363
0.150605
0.369653
0.825442
1.0138
0.541617
0.437433
0.626244
1.36316
0.571283
0.0164731
0.00299488
0.00211674
0.00244984
0.00507301
0.0125989
0.0452895
0.0642228
0.0672295
0.0239938
0.00239547
0.000994766
0.000937044
0.00158634
0.00366164
0.00875613
0.019889
0.0411096
0.0752631
0.113718
0.158569
5.51661e-11
1.27329e-11
8.99076e-12
6.78543e-12
7.92751e-12
7.89419e-11
3.5003e-10
6.543e-10
1.10935e-09
2.05616e-09
5.32694e-09
7.86688e-09
2.2367e-08
4.31662e-08
3.28027e-08
8.44124e-08
2.39604e-07
1.12243e-06
4.94598e-06
2.09598e-05
0.000211348
0.00271613
0.0440503
0.466715
3.47231
2.38615
0.211334
0.0281308
0.00304624
0.000148109
9.70187e-05
0.000332703
0.0022172
0.012281
0.0736919
0.257051
0.21439
0.0338144
0.00377008
0.000364344
0.000205593
0.000421754
0.00152813
0.0050095
0.01355
0.0313695
0.0651424
0.134772
0.27969
0.500859
0.747971
1.53535
2.06997
2.53346
0.67403
0.019682
0.00645989
0.00683789
0.011366
0.0226437
0.0446243
0.0892753
0.0971283
0.070462
0.0187908
0.00703728
0.00804977
0.0149924
0.0377054
0.106359
0.325765
0.940738
1.65456
1.05932
0.350067
0.0788109
0.0326983
0.267776
0.718915
0.114396
0.00901211
0.00555706
0.00591255
0.0118181
0.026568
0.0631857
0.102538
0.115421
0.0613281
0.00621176
0.00167912
0.00150377
0.00225372
0.00529541
0.013813
0.0332407
0.0674844
0.11392
0.137685
0.109927
9.96327e-09
2.54477e-10
2.67905e-09
1.8289e-09
4.54315e-09
1.30285e-08
2.89952e-08
4.24463e-08
8.42091e-08
9.95262e-08
2.54375e-07
7.38328e-07
3.5346e-06
9.40335e-06
1.03704e-05
6.86371e-06
8.54339e-06
1.60197e-05
5.34749e-05
0.000178144
0.0010236
0.0105228
0.112322
1.14623
7.16387
19.9377
18.4619
4.56677
0.0551484
0.0015893
0.00085257
0.00161918
0.00650272
0.0288778
0.114725
0.645157
1.42208
0.905643
0.0920848
0.00317825
0.000623628
0.000812621
0.00235411
0.0076432
0.022939
0.0639788
0.161107
0.377579
0.7852
1.2537
1.55232
1.98563
2.43142
3.30436
2.49414
0.149992
0.0231345
0.0213945
0.0290892
0.0496148
0.0871946
0.176421
0.209689
0.162557
0.041912
0.0109636
0.0116242
0.0220475
0.0635954
0.211958
0.711087
1.78091
1.74652
0.749777
0.154933
0.105107
0.252234
0.148225
0.125035
0.13211
0.0202813
0.0116844
0.0133835
0.0273604
0.0684774
0.114167
0.136235
0.151796
0.115885
0.0149898
0.00301486
0.00264332
0.00354979
0.00802055
0.0212612
0.0509977
0.0927401
0.11389
0.0854486
0.0121074
4.07047e-06
2.94803e-06
9.19057e-07
4.15889e-07
5.53495e-07
1.61821e-06
5.94031e-06
1.80657e-05
3.99724e-05
6.03568e-05
0.00010557
0.000288197
0.00109243
0.00322303
0.00412222
0.00252714
0.00141364
0.000875877
0.000865252
0.00143662
0.00413698
0.0283113
0.260802
2.56806
7.78575
8.4005
11.1321
18.5804
3.4828
0.0184744
0.00539915
0.00718144
0.023196
0.112053
0.447303
1.21232
3.26749
3.83136
1.43551
0.0398886
0.00258599
0.00184213
0.00379839
0.0128795
0.0476249
0.174563
0.510527
1.10995
1.64876
1.73343
1.59902
1.22143
1.07076
1.11326
2.10482
0.365466
0.0699074
0.0620695
0.0841506
0.130583
0.195
0.33329
0.41297
0.344072
0.094751
0.0188157
0.0183989
0.0360764
0.114945
0.40652
1.30005
2.27081
1.19912
0.536269
0.120518
0.521561
0.454021
0.294405
0.108519
0.0528084
0.0272846
0.0204577
0.0265037
0.0578976
0.155318
0.199715
0.149167
0.15527
0.154133
0.0330837
0.00569169
0.00462799
0.00577317
0.0120783
0.0306799
0.0703542
0.109834
0.0775111
0.0306107
0.00167587
0.00611928
0.0128723
0.00655796
0.0037081
0.00358903
0.00516909
0.0109412
0.0273494
0.0577735
0.0836203
0.107119
0.156833
0.3044
1.05246
3.75938
2.49087
0.950469
0.260121
0.0341102
0.01308
0.020584
0.0945724
0.920983
7.27473
10.9629
0.0215896
0.0889809
4.41875
10.0202
0.320038
0.0307305
0.0320528
0.104325
0.59894
2.02752
2.6988
3.2458
4.20896
4.91889
0.777809
0.0112237
0.00486942
0.00765011
0.0281497
0.130354
0.574254
1.3865
1.74942
1.27589
0.629637
0.289121
0.006243
0.00863824
0.152984
0.747329
0.383793
0.192811
0.209936
0.347696
0.50948
0.60003
0.740364
0.80006
0.659811
0.186962
0.0332208
0.0304637
0.0625879
0.210592
0.749135
2.0793
2.06502
0.812815
0.238223
0.533695
0.549349
0.24246
0.16172
0.0868571
0.0228456
0.0245606
0.027589
0.0454797
0.1154
0.277977
0.243537
0.170414
0.152568
0.161112
0.0607146
0.0103073
0.00790215
0.00942945
0.0183721
0.0440188
0.0926799
0.115537
0.0613737
0.0323471
0.00329352
194.102
143.224
92.9921
66.9129
34.1245
14.2931
14.4691
26.9499
40.8572
28.179
11.0469
5.69188
7.33893
19.9765
29.6886
24.1809
13.7443
4.08017
0.263537
0.0523493
0.083829
0.425876
4.07582
19.1027
6.64898
1.38941
6.78982
2.52892
3.63488
1.27041
0.115806
0.134958
0.605798
2.81096
3.81778
1.67239
0.00975861
0.00801054
2.14815
2.58272
0.0483705
0.0114998
0.0175337
0.0714392
0.387468
1.45046
1.6506
0.449656
0.0441643
0.361079
0.704935
0.527709
0.529779
0.708834
1.12649
0.150296
0.550424
0.837712
1.38215
1.68189
1.65048
1.48738
1.28693
1.03444
0.310319
0.0563118
0.0518332
0.115728
0.404508
1.38859
2.80792
1.46027
0.644807
0.362216
0.669976
0.283924
0.13219
0.0999998
0.0690985
0.0136914
0.0187597
0.0302946
0.0754668
0.225277
0.368982
0.212414
0.17371
0.143392
0.15678
0.0817873
0.0173267
0.0126731
0.0152217
0.0285722
0.0659054
0.132538
0.141648
0.0902074
0.067139
0.00818304
2.3821
12.2522
29.6469
57.7616
75.9537
61.5351
64.6565
70.1113
43.3791
30.0346
20.8047
24.2817
36.2453
44.3313
15.5164
2.79307
3.35823
2.60166
0.300053
0.16454
0.394257
2.36199
14.187
27.6541
4.09
5.65951
10.2909
10.8716
6.48641
0.596741
0.179969
0.595333
3.36338
5.42508
0.331341
0.053844
1.26248
0.450485
0.243375
1.74209
0.132812
0.0241993
0.0402303
0.196927
1.09628
1.68737
0.00644002
0.0763555
1.57115
1.74169
1.63098
1.39096
1.46617
1.85586
0.312293
0.470161
1.34614
1.86049
1.75594
1.52832
1.48445
1.07642
0.787491
0.763605
0.359108
0.0858992
0.0881126
0.224082
0.806191
2.41977
2.94247
1.12907
0.733977
0.583102
0.476795
0.0396598
0.0951457
0.0958131
0.0687057
0.00544836
0.0134802
0.0440356
0.163218
0.440115
0.325278
0.129811
0.0872382
0.0724345
0.117842
0.0948342
0.025403
0.0182865
0.0232026
0.0451714
0.108793
0.223519
0.210173
0.145198
0.0689929
0.0046882
0.0317066
0.326117
1.59683
6.17909
22.461
46.3705
43.4414
23.6319
18.7572
29.5727
50.9246
57.0904
51.8083
21.1149
13.085
9.10092
3.23742
0.555034
0.261027
0.848304
2.5788
10.1478
35.3027
19.6846
9.57331
8.84611
1.08697
2.38518
1.71732
0.00729761
0.484864
3.25834
8.29628
2.69783
0.532636
2.27718
2.21999
1.83547
0.618676
0.742081
0.168638
0.0405434
0.0972827
0.625768
2.29557
0.105394
0.316824
1.8089
1.20105
0.845583
0.596766
0.969841
1.29084
0.563846
0.0215519
1.06683
1.18866
0.195049
0.0143457
0.098843
0.0284964
0.00463619
0.0308622
0.216566
0.239688
0.10838
0.151238
0.465138
1.6429
3.59059
2.5623
1.26708
1.25802
1.30551
0.546912
0.0248089
0.0536203
0.0534142
0.0179201
0.00242096
0.019795
0.111338
0.418095
0.638767
0.159458
0.0422508
0.0124947
0.0130788
0.0459963
0.0760631
0.0307882
0.0235828
0.034185
0.0765569
0.203724
0.385723
0.282448
0.169941
0.0419227
0.00422435
0.000491942
0.00867268
0.0672184
0.336414
1.36021
2.67437
3.22334
3.96501
5.92147
12.9792
21.9271
23.1319
14.2316
8.82567
14.1975
25.861
15.9336
6.23666
3.86863
5.46294
12.9388
36.5176
48.7262
10.6954
14.0985
17.1314
0.449965
0.00999229
0.0125875
0.244722
3.67484
11.3429
8.32582
0.332022
2.80687
1.1668
0.681357
0.880886
0.584938
0.601574
0.0799589
0.0556797
0.275334
1.88564
2.20387
0.0154129
1.52875
0.879027
0.295512
0.208755
0.251952
0.492278
0.0735096
0.00708901
0.976022
0.743943
0.0100895
0.719883
1.32743
1.49957
1.40027
0.530542
0.158202
0.243891
0.143569
0.127841
0.287756
1.04504
3.15992
4.3015
2.25593
1.88017
2.39574
2.89734
1.3985
0.0608809
0.00373868
0.0029597
0.00255913
0.0104016
0.0812823
0.350692
0.897662
0.479248
0.0624697
0.0214518
0.0830533
0.0729236
0.0410223
0.0362979
0.0286095
0.0273477
0.0509903
0.137479
0.384654
0.576166
0.348848
0.142822
0.0277547
0.00491273
1.28389e-05
0.000386406
0.00316054
0.0157284
0.055502
0.131386
0.270563
0.481742
0.934712
1.77492
2.80234
3.2736
3.07139
4.18877
9.51089
26.4495
41.0371
29.5901
16.9547
24.25
46.3669
64.012
22.3997
5.86085
13.0425
37.1533
15.4741
3.07665
2.44809
6.5982
17.2828
20.9963
6.07946
2.67711
1.93056
0.246846
0.136324
0.179827
0.373473
0.567641
0.00918001
0.0968077
0.849518
3.82628
1.01511
0.65469
1.00238
0.0857926
0.0626788
0.0847259
0.150409
0.0615095
0.166426
1.48751
1.27388
0.0168537
1.22242
1.15867
0.478241
0.501277
0.797531
0.733484
0.345518
0.390293
0.0385171
0.171184
0.652836
2.38149
5.09418
4.30359
2.36672
2.87704
3.73091
4.4615
2.5929
0.235566
0.0125453
0.0155428
0.0211696
0.0727556
0.286988
0.907226
1.1154
0.253347
0.0268335
0.151241
0.159189
0.109202
0.0564043
0.020103
0.0224342
0.0307935
0.0803162
0.253835
0.675079
0.704046
0.405313
0.101137
0.039133
0.00522163
2.89488e-06
7.39225e-05
0.000537561
0.00252981
0.00883897
0.0230184
0.0520495
0.112972
0.21467
0.362614
0.564314
0.813157
1.15029
2.03168
4.2266
13.4631
38.0901
56.5644
47.829
62.2306
61.5953
27.154
5.95265
3.73807
8.75565
33.1979
49.7313
28.3957
22.0221
31.3367
38.6803
18.4484
6.48457
5.14766
0.296322
0.0925159
0.0875724
0.113236
0.350061
0.422657
0.00778924
0.290579
2.60767
5.12454
1.05355
1.13304
0.0783723
0.00582122
0.00693936
0.0176594
0.0481024
0.434557
2.4277
2.91655
0.47788
0.705207
1.04822
0.0589308
0.0265561
0.0330258
0.0875709
0.221308
0.373986
0.34141
0.0096665
0.332091
1.65611
4.67998
6.58328
3.94271
2.84182
3.75708
4.3927
5.51187
4.1859
0.777051
0.154688
0.106192
0.125563
0.273343
0.788964
1.60744
0.833986
0.195178
0.108882
0.165216
0.0790401
0.0560087
0.0494907
0.0160364
0.0187138
0.0391309
0.138448
0.471506
1.0526
0.752647
0.424818
0.103187
0.0433532
0.00529017
1.85183e-05
0.000254868
0.00151526
0.00639112
0.0215752
0.0589523
0.132683
0.246998
0.390309
0.531646
0.667953
0.809307
0.970353
1.29264
1.96063
4.84775
13.5758
28.9413
47.0335
39.0708
19.0637
5.58813
2.50978
2.53726
5.40817
21.1696
57.3468
72.353
62.6195
55.2751
29.7989
12.1918
9.6225
7.0235
0.273858
0.0408624
0.099899
0.298591
0.461189
0.0551864
0.0925118
1.10182
6.69306
5.52571
2.08095
1.24439
0.0254842
0.0341035
0.110224
0.424044
1.38026
3.89311
5.83185
2.28764
0.495603
0.72701
0.0362973
0.00544882
0.00560345
0.0160344
0.0486821
0.0557934
0.26624
0.0842942
0.11404
0.956172
3.84724
7.27099
6.71874
3.705
3.39382
4.00614
4.13781
5.54342
6.15397
2.25377
0.54121
0.384325
0.447496
0.835969
1.78876
1.87234
0.678843
0.177074
0.158258
0.0739559
0.0302875
0.026623
0.0326253
0.00815855
0.0179716
0.06351
0.261687
0.859783
1.4128
0.790993
0.434805
0.16221
0.070733
0.00924116
0.000702965
0.00602048
0.0244284
0.074317
0.194007
0.476862
0.910216
1.26984
1.51312
1.58648
1.58875
1.56273
1.58006
1.69979
1.88412
2.47056
4.06402
7.05058
13.4155
8.18113
3.62186
1.80811
1.46921
1.63897
2.81148
8.8275
21.9662
38.0848
41.2969
26.3839
12.1144
8.16317
12.3965
16.5646
2.7969
0.00734628
0.00531278
0.0631072
0.0272301
0.00384068
0.522706
4.92166
13.4784
6.54443
4.54834
3.9112
3.04456
2.24541
2.66514
4.5772
7.58946
10.1128
6.01392
2.58829
1.38171
0.920999
0.192656
0.0283068
0.0197109
0.0204698
0.031242
0.0989952
0.0370847
0.00652314
0.478202
2.80748
7.05889
9.0426
5.76106
3.68881
3.75771
3.57672
3.31464
4.69815
7.86517
5.10158
1.88624
1.31643
1.43498
2.14884
2.88836
1.59595
0.736953
0.231272
0.138479
0.0292943
0.016765
0.0172675
0.0155517
0.00368211
0.0250344
0.126471
0.514627
1.4779
1.62808
0.875314
0.519452
0.329104
0.160809
0.0196482
0.0428713
0.192592
0.512527
1.09553
2.123
3.0821
3.64131
3.69953
3.43101
3.05775
2.77686
2.57727
2.49239
2.46321
2.32168
2.26617
2.33394
2.52361
3.07635
2.03936
1.37793
1.06904
1.01117
1.08477
1.45049
3.08591
5.63962
8.82749
10.678
7.85299
5.64334
6.54868
14.3377
26.4774
9.23171
0.1697
0.00412262
0.00438863
0.0147439
0.291799
3.53346
14.4496
19.4857
9.49492
10.6975
13.7054
12.3364
10.9616
12.5518
16.7548
18.4971
12.8941
6.50164
4.37686
4.14217
4.16672
1.86282
0.374569
0.0687084
0.022116
0.0167867
0.0278084
0.0137854
0.188191
2.01788
6.30713
10.498
8.74805
4.76573
3.74536
3.71427
2.80337
2.41406
3.55306
7.74462
8.51417
5.12956
3.80585
3.69833
3.90653
3.04941
1.39367
0.870894
0.45266
0.157591
0.023352
0.00934707
0.00916005
0.00444031
0.0117034
0.0554129
0.274883
1.02117
2.27741
1.68255
1.06176
0.721535
0.678398
0.341019
0.03824
2.87091
6.09656
9.032
9.6665
8.57003
7.10232
5.4829
4.30198
3.5054
3.05479
2.79146
2.58895
2.39027
2.14008
1.81962
1.68939
1.57216
1.48493
1.44566
1.16499
0.957328
0.790738
0.720619
0.62359
0.668248
1.01543
1.42651
1.97937
2.68706
2.78982
3.09937
5.62366
12.8971
29.6801
22.0796
4.18916
0.741841
0.343164
0.595623
3.42236
13.394
30.3783
19.0836
13.2916
18.4418
26.9345
30.0869
30.3787
31.0098
29.202
20.4691
12.1449
9.44678
8.66497
9.52918
7.86782
4.09676
1.38828
0.333184
0.108961
0.048844
0.060458
0.264681
1.55155
5.82131
10.9899
11.9269
7.00836
4.14379
3.67855
3.17254
2.02847
1.70639
2.59735
5.9645
9.92237
8.68456
6.98756
6.002
4.55656
2.50804
1.57109
1.23693
0.944407
0.354111
0.0395812
0.00808778
0.00581244
0.00750278
0.0294168
0.144298
0.619943
1.98701
3.05548
1.77564
1.35875
1.07391
1.22631
0.607837
0.0735242
0.947452
4.80676
5.04039
4.47948
3.5287
2.54416
1.90308
1.55792
1.3768
1.30582
1.21786
1.09287
0.955736
0.840202
0.748354
0.769006
0.810527
0.842946
0.893267
0.799966
0.654869
0.479055
0.355985
0.233291
0.210173
0.25451
0.341605
0.523939
0.856253
1.17109
1.85969
3.9102
8.99111
25.033
46.8042
20.7848
7.33913
4.81395
6.38919
15.5355
37.2375
36.4064
15.3782
14.7066
19.7936
28.2635
33.9473
35.227
31.0873
22.7473
15.9511
13.0962
11.7923
12.0354
13.6586
12.7718
8.12452
4.39863
1.8793
0.784655
0.504104
0.666676
2.00218
5.69441
11.898
14.6529
10.0394
5.24917
3.74639
3.33121
2.29424
1.43135
1.21531
1.93246
4.13261
7.73292
9.28197
7.91648
6.01325
3.73347
2.29079
2.14523
2.20135
1.8773
0.849708
0.154354
0.0311896
0.0202126
0.0326005
0.0922657
0.392712
1.43493
3.46192
3.55928
2.00242
1.73528
1.58438
1.91001
0.936856
0.168648
0.000737887
0.00852994
0.0250213
0.0500091
0.0812545
0.114594
0.140628
0.149651
0.155727
0.163953
0.162005
0.155747
0.152635
0.161018
0.179583
0.225597
0.278517
0.313632
0.356529
0.312465
0.235826
0.151501
0.093212
0.0543906
0.0437154
0.0503945
0.076897
0.146979
0.281372
0.475616
0.941641
1.81936
3.84367
12.1041
45.6173
61.3054
33.9359
24.4647
28.5813
50.6872
53.1148
21.1669
11.2102
10.9698
12.706
16.3915
18.0845
17.7856
15.6953
12.9958
12.1045
10.9529
10.1222
10.5288
12.6464
14.7996
13.988
10.5495
6.99571
4.35701
3.45112
4.43127
7.41059
13.5238
18.2561
13.4909
6.80892
4.04907
3.26391
2.55482
1.46057
1.00919
0.919379
1.51224
2.85851
4.96193
6.38937
5.68556
4.11703
2.89892
2.92342
3.60963
3.99838
3.63173
2.15302
0.530715
0.132284
0.0907726
0.119571
0.324684
1.12552
3.13324
5.05646
3.73492
2.37116
2.19325
2.21004
2.70961
1.35503
0.486748
2.00678e-06
3.85464e-05
0.000158208
0.000458246
0.000978912
0.00177496
0.00281167
0.00407882
0.00550929
0.00681616
0.00820074
0.0104264
0.0135343
0.0174939
0.0234562
0.0326437
0.0410427
0.0459787
0.0521773
0.0451149
0.0338131
0.0219433
0.0130833
0.00746674
0.00694903
0.00974982
0.0187322
0.0412061
0.0845754
0.158898
0.315446
0.483336
0.935472
2.89071
14.2672
48.517
74.6233
72.3816
73.27
56.8569
20.4934
7.1697
4.79292
4.04483
4.21996
5.31862
5.98815
6.44239
6.58885
6.37841
6.02445
5.61791
5.69008
6.64921
8.83801
12.769
17.7473
19.9407
17.6083
13.8261
11.9034
14.0294
18.0725
22.3708
17.2959
8.59852
4.4095
3.13038
2.46402
1.61537
0.943918
0.725244
0.787097
1.26829
2.11957
3.21749
3.8785
3.56195
3.02207
3.53499
4.93342
6.01497
6.21454
6.31364
4.93614
1.90541
0.591093
0.39211
0.509867
1.19895
3.08233
5.58979
6.11082
3.74843
2.77296
2.6579
2.86773
3.56069
1.90449
1.16505
7.33097e-09
1.89639e-07
1.04557e-06
4.25276e-06
1.18552e-05
2.72873e-05
4.98967e-05
8.15833e-05
0.000124381
0.000178517
0.000254072
0.000378259
0.000567591
0.00085761
0.00126802
0.0017157
0.0020537
0.00233263
0.00259087
0.00245773
0.00191321
0.00137617
0.0012477
0.00121596
0.00163954
0.00267234
0.00573112
0.013654
0.02635
0.0442791
0.0666874
0.0720826
0.126931
0.359877
1.54352
6.28817
19.5682
28.8647
23.1478
6.00035
2.32297
1.26299
0.887896
0.722365
0.801341
1.09591
1.373
1.62668
1.69252
1.60083
1.60188
1.80064
2.2852
3.24958
4.98391
8.56378
15.1225
22.1872
26.9755
27.9396
26.8655
27.7193
26.1192
19.4239
9.44564
4.64585
2.87383
2.18057
1.52318
0.953872
0.671457
0.600084
0.758361
1.16124
1.79506
2.51407
2.98201
3.21575
4.12631
5.81735
7.74293
7.67328
7.57475
9.05151
9.40988
5.49328
2.54182
1.804
2.21167
3.92477
6.50525
7.83982
6.13645
3.68629
3.04006
3.01807
3.48497
4.39816
2.73225
2.7094
7.93526e-11
1.42883e-09
7.35785e-09
3.59925e-08
1.27053e-07
3.81744e-07
7.66544e-07
1.40495e-06
2.39324e-06
3.9693e-06
6.75833e-06
1.18622e-05
2.09052e-05
3.67552e-05
6.03074e-05
8.40422e-05
0.000103975
0.000135235
0.000115511
0.000184506
0.000196805
0.000372692
0.000919017
0.00153513
0.00161621
0.00146255
0.00172745
0.00382126
0.00636088
0.00850411
0.00862882
0.00599883
0.00478658
0.00957073
0.0242304
0.0278958
0.0643856
0.120334
0.0940992
0.0658221
0.119009
0.106295
0.092857
0.0854599
0.106039
0.141139
0.164705
0.179935
0.196671
0.227318
0.316507
0.521854
0.847552
1.38969
2.29687
4.3433
8.17831
12.9114
18.6909
23.9388
26.0471
22.7836
16.1689
8.40948
3.88493
2.44314
1.73948
1.28812
0.856549
0.621787
0.536717
0.584927
0.769431
1.12629
1.71011
2.45953
3.27492
4.47637
6.49398
8.17396
8.25522
6.94257
6.87566
9.46391
13.1766
11.7958
7.76195
6.27568
6.90638
8.90869
10.1372
8.38514
5.4829
3.55187
3.07387
3.32296
4.08967
5.21194
4.03445
5.46548
3.33058e-12
8.07846e-12
1.87315e-10
3.98028e-10
1.31541e-09
3.42841e-09
7.61057e-09
1.60981e-08
3.1867e-08
6.24424e-08
1.40679e-07
3.12253e-07
6.66737e-07
1.39141e-06
2.64188e-06
4.59283e-06
5.58219e-06
1.46015e-05
3.89935e-05
0.000147412
0.000571352
0.00177708
0.00364738
0.0040343
0.00258446
0.00123921
0.000612445
0.000645708
0.000793956
0.000930299
0.00105317
0.0010344
0.00105105
0.00133014
0.00193115
0.00252871
0.00387507
0.00623116
0.00573644
0.00534848
0.0111924
0.00713247
0.00228329
0.00590809
0.00781646
0.0105954
0.0140145
0.0201392
0.0306854
0.0510333
0.111345
0.238251
0.407895
0.66391
1.05138
1.77411
2.85253
4.1452
5.96422
7.96831
8.9695
7.24474
4.86976
2.62819
1.61919
1.26146
0.92822
0.699169
0.519534
0.459915
0.484211
0.581259
0.758568
1.09627
1.6689
2.55131
3.89496
5.63882
7.07863
7.36857
5.41082
4.39125
4.61304
6.92877
11.5195
16.3645
16.0595
14.4675
14.2688
13.7123
10.8401
7.27424
4.61196
3.34405
3.06656
3.77955
4.80982
6.11036
6.17907
9.52049
3.65851e-14
5.05148e-13
3.56348e-12
1.44507e-11
4.75129e-11
2.24451e-11
5.86758e-11
1.99679e-10
4.7053e-10
9.60221e-10
3.35288e-09
9.9473e-09
2.60165e-08
7.42678e-08
1.64073e-07
5.25188e-07
2.24977e-06
1.40981e-05
7.89988e-05
0.000356699
0.0013258
0.00348171
0.00484562
0.00296071
0.00136601
0.000719525
0.000525861
0.000427435
0.000359859
0.000415001
0.000617011
0.000809724
0.00106768
0.00190374
0.00339979
0.00547349
0.00662744
0.0050457
0.00232143
0.000927857
0.00103657
0.001009
0.00296882
0.00727692
0.00648158
0.00367532
0.00475521
0.0134214
0.0294744
0.058528
0.127881
0.207389
0.287694
0.385275
0.505892
0.668656
0.840903
1.03195
1.30003
1.57833
1.70664
1.4908
1.23565
0.889074
0.688154
0.574186
0.446714
0.372285
0.333641
0.354981
0.413759
0.504153
0.663203
0.959148
1.44947
2.27939
3.47415
4.38277
4.53007
3.41679
2.19457
1.93301
2.34699
3.74566
6.79581
12.3625
17.1547
18.0292
16.1813
12.4494
8.50911
5.75833
3.81647
3.10043
3.40244
4.35432
5.37657
6.62208
9.65881
13.6686
1.0592e-15
2.06096e-14
1.9846e-13
3.95006e-13
4.51637e-13
8.78643e-13
8.45004e-13
8.68156e-12
2.44241e-11
3.17901e-11
1.48261e-10
5.71658e-10
1.58312e-09
6.32965e-09
3.76286e-08
2.09249e-07
2.01904e-06
1.9001e-05
0.00012531
0.000604019
0.00213021
0.00425536
0.00272379
0.000451442
0.000239241
0.000295527
0.000389951
0.000273163
0.00025352
0.000534589
0.0011596
0.00119464
0.00192493
0.00397914
0.00757884
0.012317
0.0131388
0.00834306
0.00230758
0.00125384
0.000647921
0.00370678
0.00974936
0.00696838
0.00226376
0.00168203
0.0160277
0.0321358
0.0497037
0.0805115
0.119623
0.132509
0.156033
0.17177
0.181068
0.195012
0.217519
0.243747
0.275394
0.307932
0.32901
0.325761
0.318498
0.269828
0.233049
0.211447
0.186401
0.182492
0.200467
0.2416
0.280037
0.337128
0.440248
0.627064
0.93323
1.41628
1.80188
1.81501
1.38008
0.889069
0.627362
0.723563
1.07116
1.71295
3.05798
5.9403
9.24029
10.8319
10.208
8.12906
6.05544
4.37318
3.15537
2.9797
3.67272
4.19958
4.64925
5.19918
11.4078
11.9124
7.36775e-17
4.43335e-16
5.53377e-15
1.87888e-14
5.22051e-14
3.82464e-14
2.07185e-13
1.87678e-13
1.91897e-12
6.30035e-12
1.93439e-11
1.28906e-10
5.67525e-10
3.7247e-09
2.95051e-08
2.70177e-07
2.76359e-06
2.71022e-05
0.00017904
0.000861808
0.00278917
0.00354871
0.000215857
0.000180079
0.000258946
0.000301302
0.000179645
0.000397405
0.00159764
0.00185738
0.00156558
0.00183367
0.00429693
0.00889141
0.0141178
0.0166488
0.0104263
0.0014342
0.00206446
0.000287184
0.00352342
0.00823771
0.00371409
0.00155767
0.0055906
0.0195077
0.0294466
0.0340898
0.0382638
0.0447699
0.0434854
0.0382249
0.040397
0.0378466
0.0328287
0.0314215
0.0351856
0.0396833
0.0436379
0.0478408
0.0509481
0.0523716
0.0546431
0.052449
0.0535783
0.0574695
0.062313
0.0793571
0.0998893
0.118115
0.125854
0.141625
0.177957
0.248898
0.361107
0.476408
0.476984
0.352506
0.213622
0.158351
0.185086
0.341659
0.58028
0.875079
1.38941
2.43397
3.8308
4.85855
5.1105
4.51478
3.61795
2.74923
2.22061
2.46501
2.62914
2.21754
2.09507
2.02224
5.32592
3.89122
1.00439e-17
5.44922e-18
1.39709e-17
2.95536e-16
7.22961e-16
6.68591e-16
5.12468e-15
1.16498e-13
8.99887e-13
7.19023e-12
2.13473e-11
9.72167e-11
5.63414e-10
3.10376e-09
1.9674e-08
1.85274e-07
1.93034e-06
2.00061e-05
0.000163501
0.000918769
0.00305955
0.00281922
0.000430675
0.00052803
0.000546836
0.000431287
0.000606294
0.00151128
0.00183637
0.00137447
0.00151766
0.00396408
0.0101384
0.0177569
0.0215979
0.0134036
0.00102998
0.00309642
0.00250286
0.000986025
0.00417324
0.000751645
0.00209011
0.0129266
0.0220872
0.0248791
0.02133
0.0171625
0.0142994
0.0116071
0.00799148
0.00582003
0.00513255
0.00367852
0.00250209
0.00216617
0.00263455
0.00235946
0.00373025
0.00422884
0.00498448
0.00453604
0.00494534
0.00627663
0.00886578
0.0130594
0.0202871
0.0305678
0.0355562
0.034061
0.0300758
0.0292737
0.0346699
0.048167
0.066902
0.0735177
0.0578093
0.027912
0.0222466
0.0420773
0.150781
0.272159
0.333206
0.390507
0.500937
0.739425
1.06897
1.28435
1.30201
1.18005
0.986922
0.79158
0.688359
0.745406
0.61421
0.359191
0.304409
0.275897
0.620242
0.477989
1.66916e-19
3.12853e-19
3.94056e-18
2.34574e-17
1.17828e-16
8.04257e-16
2.25932e-14
5.00636e-13
1.9928e-12
9.28203e-12
1.41643e-11
1.17202e-10
4.77229e-10
1.86925e-09
1.42289e-08
1.4061e-07
1.50315e-06
1.59548e-05
0.000145776
0.000898199
0.00297959
0.00144061
0.000527877
0.00059959
0.000722724
0.000657873
0.000996321
0.00137424
0.000921429
0.000816761
0.00223121
0.00826005
0.019806
0.0278753