/*--------------------------------*- C++ -*----------------------------------*\
| =========                 |                                                 |
| \\      /  F ield         | OpenFOAM: The Open Source CFD Toolbox           |
|  \\    /   O peration     | Version:  2.3.0                                 |
|   \\  /    A nd           | Web:      www.OpenFOAM.org                      |
|    \\/     M anipulation  |                                                 |
\*---------------------------------------------------------------------------*/
FoamFile
{
    version     2.0;
    format      ascii;
    class       volScalarField;
    location    "0.04";
    object      p;
}
// * * * * * * * * * * * * * * * * * * * * * * * * * * * * * * * * * * * * * //

dimensions      [1 -1 -2 0 0 0 0];

internalField   nonuniform List<scalar> 
5000
(
101428
101281
101259
101138
100933
100699
100435
100162
99917.8
99739.7
99652.2
99648.2
99680.7
99778.4
99836.5
99949.9
100027
100096
100130
100205
100232
100302
100368
100461
100397
100403
100338
100263
100228
100171
100161
100069
100033
100019
100017
99890.3
99929.1
99971.8
100023
100090
100121
100115
100115
100110
100097
100082
100064
100048
100058
100022
99993.1
100003
100015
100032
100047
99981.5
99986.5
99964.5
99931.2
99937.5
99899.2
99908.4
99900.4
99943.7
100024
99948.4
99973.5
99994.2
100001
99985.9
100015
100022
100014
99970.3
99928.3
99873.1
99861.2
99909.6
99893
99968.5
99892.9
99955.6
99950.1
99935.3
99916.9
99870.5
99840.6
99839
99884.8
99972.1
99970.5
100017
100027
100039
100039
100054
100055
100007
100028
99988.1
101653
101320
101240
101120
100923
100690
100430
100168
99933.7
99757.9
99665.9
99655.6
99688.4
99787.9
99838.5
99951.6
100027
100098
100128
100204
100231
100301
100367
100443
100409
100391
100320
100248
100218
100169
100163
100073
100045
100027
100025
99895
99933.7
99971.7
100022
100091
100125
100139
100120
100116
100106
100094
100073
100067
100061
100033
100005
100007
100015
100030
100055
99998.5
99990.8
99970
99953.6
99940.1
99905.6
99910
99900.4
99942.3
100030
99950.4
99983.9
100000
100005
100021
100023
100030
100020
99969.1
99933.4
99872.5
99861.1
99908.4
99890.6
99969.7
99893
99959.3
99953
99939.3
99918.6
99871.9
99841.1
99837.5
99883.7
99973.2
99968.4
100019
100027
100040
100040
100055
100052
100051
100036
100033
101550
101257
101210
101090
100900
100671
100420
100167
99942.9
99773.6
99678.7
99674.5
99702.4
99787.6
99848.6
99948.4
100022
100088
100121
100198
100226
100297
100367
100434
100412
100350
100281
100218
100198
100155
100158
100063
100038
100013
100023
99889.7
99925.8
99967.8
100013
100094
100116
100132
100112
100108
100098
100085
100066
100056
100056
100024
100004
100000
100007
100031
100057
99994.6
99973.6
99964.8
99941.7
99928.8
99905.8
99900.8
99894.2
99935.9
100031
99945.6
99980.9
99998.9
100005
100008
100021
100029
100019
99971.3
99938.3
99864.6
99856.9
99911.9
99888.5
99970.3
99893.5
99964
99955.8
99944.2
99917
99874
99836.3
99831
99881.2
99975
99965.1
100017
100027
100040
100049
100051
100052
100039
100031
100020
101667
101177
101105
101014
100859
100655
100424
100183
99970.4
99801.7
99709.3
99698.9
99722.9
99800.4
99865.5
99944.5
100019
100084
100124
100186
100221
100289
100357
100404
100400
100300
100234
100164
100164
100145
100156
100062
100044
100024
100038
99882.1
99922.4
99962.8
100008
100094
100113
100133
100109
100107
100097
100086
100063
100051
100044
100024
100011
100001
100003
100022
100053
100005
99970.8
99968.5
99945.8
99929
99915.5
99905
99890.2
99931.2
100040
99937.8
99986.9
99998.3
100007
100014
100023
100026
100025
99964.7
99951
99863.3
99852.1
99909.6
99891.2
99972.8
99896.5
99969.8
99959.4
99950.2
99921.1
99875.8
99832.5
99824.6
99877.5
99976.7
99961
100019
100027
100041
100046
100054
100052
100048
100034
100028
101357
101067
101040
100965
100806
100607
100398
100177
99979.8
99825
99739.5
99720.5
99746.9
99806.8
99882.2
99933.8
100011
100067
100112
100165
100215
100280
100350
100374
100381
100238
100177
100104
100117
100120
100135
100052
100039
100006
100019
99889.3
99916.6
99955
99998.7
100093
100094
100130
100097
100099
100091
100079
100058
100045
100041
100017
100016
100000
99987.9
100033
100041
100011
99956.2
99964.3
99935.1
99920.4
99899.1
99911.1
99882.8
99922.2
100046
99926.6
99990.1
99996.7
100007
100011
100024
100028
100028
99968.6
99942
99872.5
99858.5
99891.3
99900
99975.2
99897.7
99975.6
99960.8
99952.8
99919.6
99880.9
99825
99815
99875.2
99981.9
99956.5
100018
100027
100041
100048
100053
100051
100042
100031
100023
101304
100976
100907
100863
100753
100586
100399
100196
100017
99860.9
99779.1
99764.4
99779.6
99833
99898.6
99936.6
100000
100053
100102
100158
100198
100263
100351
100338
100322
100168
100110
100044
100068
100104
100110
100044
100048
100007
100006
99906.2
99909.1
99943.7
99987.7
100089
100088
100122
100087
100098
100088
100076
100055
100041
100032
100021
100004
100007
99983.7
99994.5
100042
100023
99942
99970.8
99937.8
99919.3
99901.8
99909.5
99880.3
99917.1
100050
99917.8
99993
99996.1
100008
100013
100024
100028
100025
99969.8
99936.9
99883.8
99869.9
99891
99885.5
99983.3
99895.3
99979
99961.5
99950.5
99923
99878.4
99824
99808.6
99863.5
99991.3
99951.1
100020
100025
100041
100046
100053
100051
100046
100033
100027
101267
100898
100841
100785
100661
100512
100362
100185
100022
99890.2
99817.5
99786.6
99809.7
99848.6
99904.5
99940
99994.2
100030
100086
100153
100171
100240
100332
100293
100274
100095
100020
99966.1
100009
100086
100067
100032
100041
100014
99975.8
99911.7
99885.7
99914.4
99971.7
100076
100087
100112
100075
100091
100082
100069
100048
100035
100028
100013
100002
100007
99977.2
99999.4
100003
100050
99916.7
99972.3
99928.6
99910
99896.6
99901
99880.2
99913.8
100045
99912
99995
99993.4
100008
100012
100024
100028
100028
99971.2
99939.6
99885.2
99867.3
99884.6
99875.6
99984.7
99900
99982.6
99962.6
99949.5
99925.3
99868.3
99831
99803.3
99851.2
100005
99942.8
100023
100025
100041
100047
100053
100050
100043
100031
100026
101106
100727
100722
100699
100604
100484
100356
100206
100064
99935.4
99868.9
99834.1
99855.5
99884.6
99955
99917.3
99974
100011
100081
100130
100147
100222
100300
100301
100232
100105
99962.6
99912.7
99942.1
100094
100014
100034
100042
100011
99963.2
99944.6
99868.2
99885
99960.9
100081
100083
100098
100066
100088
100078
100066
100044
100031
100024
100010
99999.8
100001
99976.9
100002
99939.2
100087
99881.5
99983.5
99930
99907.8
99894.1
99895.3
99887.8
99912
100035
99911
99996.8
99991.2
100008
100014
100022
100028
100026
99972
99938.4
99886.6
99867.6
99880.3
99877.8
99965.8
99919.5
99974.8
99963.5
99949
99924.7
99866.4
99830.5
99801.3
99837.4
100012
99937.2
100027
100022
100041
100046
100052
100050
100044
100031
100028
100538
100598
100621
100579
100491
100402
100304
100190
100078
99965
99906
99867.3
99890
99906
99950.9
99932
99962.1
99983
100071
100106
100136
100200
100274
100251
100175
100105
99931.1
99899.8
99904.3
100101
99965.9
100036
100043
100005
99962.3
99912.9
99885
99845.1
99938.8
100068
100078
100080
100056
100078
100070
100058
100038
100025
100018
100005
99993.8
99995.9
99978.3
99979.6
99953.6
100061
99882.4
99985
99919.8
99900.6
99886.6
99890.4
99894.7
99907.9
100021
99914.4
99997.4
99989.1
100007
100013
100020
100027
100025
99976.4
99932.7
99893
99863.9
99881.2
99883.9
99964.7
99928.1
99965.7
99963.7
99949.2
99925.5
99861.6
99830.5
99803.4
99827.5
100004
99935.6
100031
100020
100040
100046
100052
100049
100042
100029
100027
100955
100544
100517
100488
100427
100363
100277
100204
100118
100015
99960.2
99916.3
99944.2
99955.4
99946
99948.4
99932.6
99925.2
100064
100074
100118
100180
100222
100236
100175
100077
99953
99854.3
99859.6
100199
99898
100034
100045
100005
99959.2
99899.1
99893.5
99817.1
99922.6
100008
100100
100054
100050
100072
100066
100055
100034
100022
100015
99999.1
99988.7
99995.7
99977.4
99993.4
99959.9
100027
99903.1
99983.3
99919.1
99901.5
99881.9
99890.9
99899.2
99909.1
100010
99920.4
99996.8
99986.8
100008
100013
100016
100024
100023
99974.6
99936.4
99894.3
99862.4
99878.4
99884.2
99960.1
99928.2
99965.9
99964.4
99947.9
99926.9
99858.8
99830
99801.2
99818.9
99984.9
99934.9
100032
100017
100039
100045
100052
100050
100043
100028
100027
100504
100437
100407
100360
100315
100285
100236
100194
100123
100022
99984.3
99943.9
99966.5
99979.3
99974.5
99964.7
99943.2
99872
100066
100029
100106
100156
100195
100207
100176
100031
99949.3
99883.8
99868.4
100085
99897.1
100040
100043
100003
99946.6
99889.7
99900.6
99789.5
99899.8
99951.5
100165
100012
100047
100062
100057
100050
100029
100018
100009
99993.1
99987.2
99993.6
99978.4
99990.8
99965.3
100009
99920.5
99968.5
99911.7
99889
99879.4
99887.2
99899.9
99912.8
100002
99927.1
99994.9
99984.7
100006
100014
100018
100023
100018
99976.7
99928.2
99896.6
99876.5
99879.2
99886.9
99958.6
99927.6
99967
99964.4
99948.5
99928.2
99855
99832.3
99798.5
99811.4
99966.2
99939
100030
100016
100037
100045
100051
100049
100042
100025
100024
100509
100407
100382
100347
100298
100254
100215
100165
100115
100041
100007
99970.3
99979.6
99989.5
99990.3
99947
99945.1
99885.1
100018
100010
100090
100113
100176
100208
100176
100027
99912.5
99887.5
99868
100094
99932.5
100038
100048
100001
99952.1
99862.4
99870
99786.5
99889.2
99931.7
100161
99990.2
100039
100054
100052
100047
100031
100012
100006
99988.1
99982.9
99991.2
99983.1
99998.9
99985.7
99996.5
99938.6
99958.6
99910.9
99885.1
99884
99883.7
99900.6
99919.1
99995.3
99932.6
99990.3
99985.4
100008
100014
100019
100021
100015
99970.3
99930.2
99901.1
99870.7
99880.2
99887.2
99954.2
99928.9
99963.1
99965.4
99947.6
99927.8
99851.4
99834.1
99794
99805.2
99949.5
99946.6
100023
100013
100035
100044
100051
100050
100042
100021
100020
100335
100338
100325
100297
100254
100217
100190
100145
100100
100042
100006
99979.6
99996.5
99997.9
99994.6
99955.5
99949.8
99913.7
99979.5
100019
100053
100105
100158
100213
100166
100032
99941.2
99872.5
99900.4
100062
99965.7
100023
100037
100006
99935.4
99856.9
99828.8
99785.5
99891.1
99938
100130
99978.7
100028
100047
100043
100047
100022
100010
99998.1
99986
99978.6
99991.8
99982.7
100010
99985.3
99993.6
99950.9
99953
99905.9
99875.7
99884.9
99877.1
99898.3
99911.4
99992.4
99936.5
99987.2
99986.7
100007
100013
100019
100019
100010
99967
99923.2
99911.8
99869.4
99883.5
99892
99948.9
99931.1
99961.4
99966.7
99948
99928.9
99843.2
99839.9
99787.1
99801.1
99933
99953.7
100016
100012
100033
100043
100050
100050
100040
100018
100015
100325
100309
100295
100270
100239
100203
100170
100133
100090
100046
100020
99997.2
99997.1
100003
99996.2
99972.5
99965.6
99945.3
99968.6
100008
100043
100114
100142
100180
100145
100027
99979.6
99913.2
99926.7
100031
99978.4
100019
100044
99998.5
99914.5
99856.8
99816.8
99786.1
99879.3
99931.4
100101
99980.5
100021
100041
100044
100033
100031
100007
99995.3
99980.5
99977.7
99990
99988.7
100005
99997.5
99993
99959.3
99947.5
99904.1
99874
99882.2
99874.1
99898.1
99910.1
99985.3
99938.1
99984.3
99986.8
100006
100013
100016
100014
100008
99971.4
99921.8
99917.2
99863.2
99886.5
99893.4
99941.7
99934.6
99960.7
99967.7
99947.3
99928.1
99834.1
99838.6
99789.9
99798.5
99918.5
99956.2
100010
100010
100030
100041
100049
100050
100040
100013
100011
100272
100268
100257
100235
100207
100177
100149
100113
100079
100043
100018
100000
99999.7
100004
100001
99982.6
99982.2
99966.5
99976
100021
100064
100093
100145
100177
100131
100039
99995.1
99942.8
99944.7
100017
99998.2
100026
100038
99981.1
99896.3
99835.9
99796.8
99794.2
99867.4
99922
100068
99992.7
100013
100037
100044
100020
100035
100003
99990.7
99979.1
99980.1
99986.9
99990.4
100003
100001
99992.8
99960.2
99943.6
99902
99873.7
99872.4
99871.8
99898.2
99908
99978.3
99940.9
99982
99985.8
100007
100011
100013
100010
100007
99968.8
99932.6
99918.9
99863.7
99892.5
99896.6
99937.1
99938.5
99960.3
99966.1
99949.3
99921.6
99838.3
99831.3
99796.6
99800
99908.9
99951.5
100006
100007
100026
100041
100047
100049
100039
100010
100007
100255
100246
100234
100213
100189
100161
100132
100101
100070
100041
100020
100004
100002
100003
100000
99994.4
99990.3
99987.1
99995.6
100029
100069
100100
100137
100164
100120
100053
100017
99972.1
99968.9
100015
100017
100027
100026
99970.6
99903
99837.4
99789.6
99804.1
99849.6
99920.9
100029
99996.6
100009
100032
100030
100019
100029
100001
99987.9
99980.8
99982.4
99987
99994.7
100002
100006
99989.4
99963.6
99942.8
99902.4
99869.8
99867.3
99872.8
99896.8
99909.6
99970.6
99945.5
99979
99985.8
100002
100006
100011
100008
100004
99969.9
99928.8
99926.6
99878
99894.3
99900.4
99934.7
99938.4
99959.1
99965.2
99949.6
99914.8
99851.6
99830
99800.6
99804.8
99906.7
99948.9
99999.5
100005
100022
100037
100048
100045
100039
100007
100004
100240
100222
100206
100187
100165
100139
100114
100087
100060
100035
100017
100005
100002
100002
100002
99999.6
100002
100001
100018
100050
100071
100102
100141
100142
100120
100071
100029
99997.1
99995
100026
100024
100029
100025
99963.2
99907.4
99838.1
99786.5
99806.4
99840.8
99923
99991.6
99992.9
100007
100028
100016
100019
100017
99997.5
99991.7
99982.8
99982
99988.4
99994.1
100003
100004
99989
99963.7
99940.6
99901.8
99869.2
99864.5
99875.3
99893.3
99912.6
99961.8
99948
99978.5
99983.4
100000
100005
100008
100006
100001
99966.9
99939.9
99925
99887.3
99895.2
99903
99933.1
99939.4
99957.1
99963.7
99947.9
99910
99855.1
99829.4
99805.6
99810
99904.9
99946.3
99993.7
100004
100020
100037
100045
100044
100038
100000
100003
100224
100204
100188
100168
100147
100124
100100
100075
100052
100030
100015
100004
100002
100003
100004
100005
100008
100013
100024
100052
100074
100100
100124
100132
100116
100077
100046
100015
100011
100031
100030
100031
100019
99965.1
99903
99846.8
99803.1
99803.2
99853.5
99917.8
99970.4
99983.7
100000
100024
100020
100021
100009
99996.8
99993
99985.6
99985.6
99989.6
99995.5
100003
99999.6
99989.5
99962.5
99940.6
99901.6
99871
99864
99879.2
99891.3
99912
99955.4
99950.3
99977
99983.4
99995.9
100002
100005
100003
99994.4
99970.2
99940.8
99926.3
99901.1
99898.8
99907.3
99931.9
99939.6
99956.1
99961.9
99946.8
99906.9
99858.4
99829.9
99812
99812.8
99907.5
99944.5
99989.2
100002
100017
100036
100040
100043
100036
100001
100002
100212
100184
100166
100146
100127
100107
100085
100063
100042
100024
100010
100003
100001
100003
100007
100010
100015
100022
100035
100057
100078
100100
100121
100127
100114
100083
100055
100030
100025
100035
100032
100028
100013
99967.2
99911
99868.1
99830.9
99822.5
99861.8
99919.8
99956.9
99978.4
100005
100021
100021
100021
100008
99999.3
99994.1
99986.8
99987.1
99990.7
99995.6
100002
99997.9
99987.4
99962.2
99940.4
99902.8
99874.9
99867.6
99883.5
99889.6
99912.4
99948.8
99952.9
99973.6
99982.5
99992.6
99999.1
100002
100001
99990.5
99969.7
99945.6
99928.1
99907.8
99901.5
99910.6
99932
99939.6
99954.5
99959.9
99944.7
99905.2
99863.1
99827.2
99822.3
99816.9
99910.9
99942.7
99987.1
100001
100015
100031
100038
100040
100035
100004
99998.7
100186
100167
100150
100132
100113
100093
100072
100051
100032
100017
100006
100001
100001
100004
100009
100014
100020
100029
100042
100061
100080
100099
100114
100121
100111
100087
100063
100041
100034
100038
100035
100029
100012
99974.8
99925.3
99879.3
99849.8
99846.9
99871.7
99922.3
99953.2
99985
100000
100019
100019
100021
100006
99999.4
99996.5
99989.6
99989.1
99991.4
99995.9
100000
99995.8
99984.5
99963.2
99941.6
99904.8
99881.1
99870.8
99886.7
99894
99910.8
99944
99951.8
99973
99980.5
99990.7
99996.7
99999.5
99998.4
99986
99969.6
99947.9
99930.6
99915.1
99906.5
99914.3
99931.8
99939.5
99953.1
99957.2
99944
99903.7
99866.3
99834.9
99827.3
99829.9
99911.8
99941.8
99985.4
99999.3
100016
100029
100037
100038
100032
100007
99997.5
100166
100148
100130
100112
100094
100075
100055
100037
100021
100009
100001
99998.5
100001
100006
100013
100019
100027
100036
100048
100065
100082
100099
100111
100116
100108
100089
100070
100050
100043
100042
100036
100028
100011
99979.7
99938
99903.8
99877.9
99869.3
99888.4
99930.9
99961.6
99984.9
99998.9
100016
100018
100018
100006
100001
99996.4
99990.8
99990.1
99991.9
99995.3
99997.3
99994
99980.6
99963.1
99940.1
99909.1
99889.8
99877.3
99888.5
99896.9
99912.6
99941.4
99955.8
99970.9
99978.9
99988.8
99992.5
99997.1
99996.6
99982.9
99969.1
99950.3
99931.3
99917.6
99911.7
99916.9
99932
99939.2
99950.7
99954.5
99939.6
99904.7
99870.8
99844.4
99834.1
99843.2
99910.7
99942.6
99982.9
99996.5
100015
100024
100035
100036
100029
100008
99996
100110
100105
100094
100081
100066
100049
100033
100019
100007
99999.3
99995.5
99996.9
100002
100009
100018
100025
100033
100042
100054
100068
100083
100096
100106
100110
100104
100090
100074
100057
100048
100044
100037
100029
100010
99982.3
99951.7
99926.1
99901.2
99895.9
99909.7
99947.8
99965.9
99983.4
99999.3
100011
100016
100016
100006
100002
99997.8
99992.9
99991.4
99992
99993.8
99995.5
99990.8
99978.4
99962.3
99944.3
99912.4
99896.5
99885
99892.2
99901.1
99913.8
99944.9
99955.8
99968.9
99976.4
99987
99990
99993.4
99992.2
99980.8
99967.8
99951.2
99932.9
99921.7
99916.3
99919.7
99932.2
99939
99948.4
99950.9
99937.6
99908.2
99873.3
99850.9
99844.8
99854.5
99911.8
99943.1
99981.3
99995.2
100012
100023
100034
100033
100027
100009
99995.5
100060
100059
100054
100045
100034
100022
100011
100002
99995.2
99992.8
99993.8
99999
100007
100016
100025
100033
100041
100049
100059
100070
100082
100092
100099
100102
100098
100088
100075
100061
100052
100046
100037
100028
100011
99988.4
99957.1
99936.9
99917.6
99914.9
99924.2
99957.3
99968.6
99988
99998.8
100011
100014
100014
100006
100002
99997.9
99993.8
99992
99992
99992.8
99992.8
99987.9
99976.6
99961.7
99943.6
99918.4
99904.3
99892.2
99896.9
99903.6
99919.8
99943.3
99956.2
99966.8
99975.1
99983.9
99988.3
99989.6
99988
99978.6
99966.1
99952.1
99934.7
99924.7
99919.8
99922
99932.4
99938.4
99946.1
99947.6
99933.8
99909.4
99878.7
99859.3
99854.7
99866.4
99914.4
99944.7
99979.5
99993.6
100011
100020
100031
100031
100025
100010
99995.7
100029
100026
100023
100016
100009
100002
99995.4
99991.3
99990.1
99992.7
99998
100006
100016
100026
100035
100042
100049
100055
100062
100069
100078
100084
100089
100091
100089
100082
100073
100062
100053
100046
100037
100027
100010
99990.3
99965
99947
99932.1
99928.6
99937.4
99964.3
99974.3
99990.6
99999.1
100009
100011
100013
100006
100003
99999
99995
99992.7
99991.8
99991.3
99990.9
99984.8
99975.2
99960.7
99944.7
99923.3
99911.3
99901.4
99903.1
99908.1
99924.1
99942.1
99957
99966.2
99974.2
99981.3
99985.5
99986.9
99983.6
99976
99964
99951.8
99936.8
99927.7
99923.1
99924.3
99932.6
99937.8
99943.8
99944.3
99931.8
99911.3
99881.4
99867.5
99865.6
99875.7
99916.3
99946.4
99977.1
99992.7
100008
100019
100029
100027
100023
100011
99996.7
100002
100001
99999.7
99997.1
99993.6
99990.4
99988.9
99989.6
99993.2
99999.7
100008
100018
100029
100038
100045
100051
100055
100058
100063
100066
100072
100076
100079
100080
100079
100075
100068
100060
100052
100044
100035
100025
100011
99994.7
99974.4
99960.9
99950.6
99945.8
99951.3
99966
99977
99990.7
99999.4
100008
100010
100011
100006
100004
99999.4
99995.7
99993.2
99991.5
99990.2
99988.1
99982.3
99973.1
99960
99945.4
99927.7
99916.3
99908.6
99910.6
99914.2
99928.6
99943.6
99955.6
99965.5
99972.9
99978.6
99983
99983.2
99980
99973.5
99962.6
99951.8
99937.8
99930
99925.5
99926.2
99932.7
99936.8
99941.8
99941
99929.6
99911.8
99889.3
99875.5
99874.8
99885.8
99920.7
99947
99975.6
99991.3
100006
100016
100025
100025
100021
100011
99997.3
99989.8
99989.6
99989.8
99989.8
99989.7
99990.9
99993.5
99998.2
100005
100014
100023
100033
100042
100048
100053
100056
100058
100058
100059
100061
100063
100065
100067
100068
100068
100065
100061
100055
100048
100041
100033
100024
100011
99997.7
99981.3
99969.7
99961.5
99958.7
99963.4
99974.7
99982.2
99993
100000
100007
100009
100011
100007
100004
100000
99996.6
99993.5
99991
99988.7
99985.8
99979.7
99971.3
99959.3
99946.2
99931.6
99921.4
99915.1
99916.9
99921.1
99933.8
99944.4
99955.5
99964
99971.4
99976
99979.9
99979.5
99977.2
99970.8
99961.2
99950.9
99939.5
99932
99927.5
99928
99932.7
99936.1
99939.4
99938.3
99928.4
99912.4
99894.2
99883.8
99884.2
99893.8
99924.2
99948
99974.4
99990.3
100004
100014
100023
100022
100019
100011
99998.5
99989.9
99990.6
99992
99994
99997.1
100002
100008
100015
100023
100032
100041
100048
100054
100057
100058
100058
100057
100055
100054
100054
100055
100056
100058
100058
100058
100056
100053
100049
100043
100038
100030
100022
100012
100001
99988.6
99979.4
99972.8
99969.6
99972.1
99979.4
99986.4
99995
100001
100007
100009
100010
100007
100005
100001
99997.1
99993.7
99990.6
99987.4
99983.6
99977.7
99969.6
99959.2
99947.5
99935.4
99926.5
99921.4
99923
99927.1
99937
99946.3
99955.7
99963
99969.7
99973.3
99977.2
99975.8
99974
99968.1
99959.6
99950.5
99940.4
99933.5
99929.1
99929.1
99932.7
99935
99937.6
99934.9
99927.3
99914.6
99898.9
99890.2
99891.3
99901.3
99926.9
99949.6
99973.2
99988.6
100001
100011
100020
100019
100017
100011
99999.2
100003
100004
100006
100010
100015
100021
100028
100036
100044
100051
100057
100061
100062
100062
100060
100056
100053
100049
100047
100046
100046
100047
100048
100049
100049
100047
100045
100042
100038
100033
100028
100021
100012
100003
99993.8
99986.7
99981.6
99979.5
99981.1
99985.9
99991.2
99997.8
100003
100007
100009
100010
100007
100005
100001
99997.7
99993.9
99990
99986.1
99981.6
99975.6
99968.1
99959.2
99949
99938.8
99931.5
99927
99928.4
99932
99940.1
99947.3
99955.9
99961.6
99967.9
99970.8
99974
99972.4
99971.1
99965.3
99958.1
99949.9
99940.9
99934.6
99930.5
99930.1
99932.5
99934.1
99935.5
99933.5
99926.3
99915.8
99903.1
99897
99897.7
99907.2
99930.2
99951.1
99972.3
99987.3
99999.9
100009
100017
100017
100015
100010
100000
100023
100024
100027
100031
100036
100042
100049
100056
100062
100067
100069
100069
100067
100064
100059
100053
100048
100043
100040
100039
100039
100040
100041
100041
100041
100040
100038
100036
100033
100030
100025
100020
100013
100006
99999
99993.2
99989.1
99986.9
99987.9
99991.4
99995.6
100000
100004
100008
100009
100010
100008
100005
100002
99998
99993.8
99989.5
99985
99980
99974.1
99967.1
99959.5
99950.8
99942.7
99936.4
99933
99933.9
99936.8
99942.9
99948.8
99955.6
99960.7
99965.9
99968.3
99971
99969
99967.8
99962.6
99956.4
99948.9
99941.2
99935.3
99931.5
99930.7
99932.3
99933.1
99934.1
99931.8
99925.5
99916.6
99906.7
99901.5
99903.8
99912.7
99933.1
99952.1
99971.3
99985.7
99997.6
100006
100014
100014
100013
100010
100001
100044
100045
100048
100051
100056
100061
100066
100071
100074
100076
100075
100073
100068
100062
100056
100049
100043
100038
100034
100033
100033
100034
100034
100034
100034
100034
100033
100031
100029
100027
100023
100019
100014
100009
100003
99998.7
99995.5
99993.8
99994.1
99996.3
99999.3
100003
100006
100009
100010
100010
100008
100006
100002
99998
99993.5
99988.8
99983.9
99978.7
99973.1
99966.8
99960.5
99953.3
99946.8
99941.7
99938.8
99939.2
99941.2
99945.7
99950
99955.8
99959.6
99964.2
99965.7
99967.9
99966
99964.4
99959.8
99954.6
99948.1
99941.3
99936
99932.4
99931.2
99931.9
99932.2
99932.6
99930.6
99925.1
99918.1
99910.3
99906.4
99908.4
99917.7
99935.5
99953.6
99970.6
99984.5
99996
100004
100011
100011
100011
100008
100001
100059
100060
100062
100065
100068
100071
100074
100077
100078
100078
100076
100072
100066
100060
100053
100046
100040
100035
100032
100030
100030
100030
100030
100030
100030
100029
100029
100028
100026
100025
100022
100019
100015
100011
100007
100003
100001
99999.1
99999.3
100001
100003
100005
100008
100010
100010
100010
100008
100006
100002
99997.7
99993
99988.1
99983.1
99977.9
99972.6
99967.1
99961.8
99955.8
99950.6
99946.4
99944
99943.8
99945.2
99948.3
99951.6
99955.8
99959
99962.3
99963.4
99964.6
99962.7
99961.2
99956.9
99952.7
99946.8
99941.2
99936.3
99932.8
99931.3
99931.5
99931.5
99931.5
99929.5
99925
99918.9
99912.8
99910.8
99914.3
99922.8
99938.4
99954.8
99970.1
99982.7
99993
100001
100006
100007
100007
100006
100000
100065
100066
100067
100069
100071
100073
100074
100075
100075
100074
100071
100068
100062
100057
100051
100045
100039
100035
100032
100030
100029
100028
100028
100028
100027
100027
100026
100025
100025
100023
100022
100019
100016
100013
100010
100007
100005
100004
100003
100004
100006
100008
100009
100011
100011
100010
100008
100005
100001
99997.2
99992.4
99987.4
99982.4
99977.4
99972.6
99967.8
99963.3
99958.6
99954.4
99950.8
99948.6
99948.1
99948.7
99950.7
99953
99956.1
99958.3
99960.8
99961.1
99961.9
99960
99958.4
99954.8
99951.1
99946
99940.8
99936.3
99933.2
99931.2
99930.9
99930.5
99930.4
99928.8
99925.5
99922.4
99918.6
99917.9
99921.4
99929.4
99942.5
99956.4
99969.2
99980.7
99989.9
99997.1
100002
100004
100004
100005
99999.2
100063
100063
100064
100065
100066
100067
100067
100068
100067
100066
100065
100062
100058
100054
100050
100046
100041
100038
100035
100032
100030
100029
100028
100027
100026
100025
100025
100024
100023
100022
100021
100019
100016
100014
100012
100010
100008
100007
100007
100007
100008
100009
100010
100011
100011
100010
100008
100005
100001
99996.2
99991.4
99986.6
99981.8
99977.3
99972.8
99968.6
99964.9
99961.1
99957.6
99954.6
99952.5
99951.6
99951.7
99952.9
99954.3
99956.3
99957.8
99959.3
99959.3
99959.2
99957.2
99955.7
99952.5
99949.5
99944.8
99940.5
99936.1
99932.9
99930.9
99930.2
99929.9
99930.1
99929.6
99928.1
99925.7
99923.2
99923.6
99927.3
99934.8
99945.6
99958.2
99969.1
99979.3
99987.2
99994
99998.1
100001
100001
100003
99999.2
100056
100056
100056
100056
100057
100057
100058
100058
100058
100058
100057
100056
100054
100052
100050
100048
100045
100042
100039
100036
100034
100031
100029
100027
100026
100025
100024
100023
100022
100021
100020
100018
100017
100015
100013
100012
100010
100009
100009
100009
100009
100010
100011
100011
100010
100009
100006
100003
99999.1
99994.9
99990.5
99986
99981.7
99977.5
99973.6
99969.8
99966.5
99963.2
99960.4
99957.7
99955.6
99954.5
99954.1
99954.5
99955.2
99956.5
99957.2
99958
99957.5
99957
99955.4
99953.8
99951.1
99948.2
99944.1
99939.8
99935.9
99932.8
99930.5
99930
99929.9
99930.7
99930.8
99930.5
99930.1
99929.4
99930.5
99934.1
99940.5
99949.4
99959.8
99969
99978.2
99985.2
99991.5
99995.2
99998.3
99998.9
100001
99998.1
100048
100048
100048
100048
100048
100048
100048
100048
100049
100050
100050
100051
100051
100051
100050
100049
100048
100045
100043
100040
100037
100033
100030
100028
100026
100024
100022
100021
100020
100019
100018
100017
100016
100015
100014
100012
100011
100010
100010
100009
100009
100009
100009
100008
100008
100006
100004
100001
99997.5
99993.9
99990
99986.2
99982.2
99978.4
99974.7
99971.1
99968
99965
99962.5
99960
99958
99956.6
99955.8
99955.7
99955.9
99956.3
99956.6
99956.6
99955.9
99955.1
99953.6
99952
99949.6
99946.9
99942.9
99939.4
99935.3
99932.2
99930.7
99930.3
99930.7
99931.8
99932.8
99933.6
99933.9
99934.2
99936.1
99939.5
99945.3
99952.5
99961.5
99969.3
99977.4
99983.6
99989.4
99992.5
99995.9
99996.5
99999.8
99997.8
100043
100043
100042
100042
100042
100041
100041
100042
100043
100044
100045
100046
100048
100049
100049
100049
100048
100047
100044
100041
100038
100034
100030
100027
100024
100021
100019
100018
100016
100016
100015
100015
100014
100013
100013
100011
100010
100009
100008
100007
100007
100007
100006
100006
100005
100004
100002
99999.5
99996.9
99993.9
99990.7
99987.2
99983.6
99979.9
99976.2
99972.5
99969.3
99966.3
99963.7
99961.3
99959.3
99957.7
99956.7
99956.2
99956
99956
99955.8
99955.4
99954.5
99953.6
99952.2
99950.6
99948.4
99945.6
99942.2
99938.4
99934.7
99932.3
99931
99931
99931.9
99933.6
99935.4
99937
99938.5
99939.8
99942.2
99945.3
99950.3
99956.1
99963.5
99970
99977.1
99982.5
99987.8
99990.7
99994.3
99995.6
99998.8
99997.6
100041
100041
100040
100040
100039
100039
100038
100039
100039
100040
100041
100042
100044
100045
100045
100046
100045
100044
100041
100038
100034
100031
100027
100023
100020
100017
100014
100013
100012
100012
100011
100012
100011
100011
100010
100009
100008
100006
100006
100005
100004
100004
100003
100003
100002
100001
100000
99998.9
99997.1
99994.8
99992
99988.7
99985.1
99981.3
99977.4
99973.5
99969.9
99966.8
99964
99961.6
99959.7
99958.1
99957
99956.2
99955.8
99955.4
99954.9
99954.2
99953.3
99952.3
99950.9
99949.3
99947.1
99944.5
99941.1
99937.5
99934.4
99932.6
99931.8
99932.3
99933.6
99935.7
99938
99940.2
99942.3
99944.1
99946.7
99949.7
99954
99958.9
99965.1
99970.5
99976.8
99981.6
99986.6
99989.2
99992.8
99993.8
99998.2
99996.8
100043
100042
100042
100041
100040
100039
100038
100037
100037
100037
100037
100037
100038
100038
100038
100038
100037
100036
100034
100031
100027
100024
100020
100016
100013
100010
100008
100007
100007
100007
100008
100009
100009
100008
100007
100006
100005
100004
100003
100002
100002
100002
100001
100001
100001
100001
100000
99999.4
99998.1
99996.1
99993.4
99990.1
99986.3
99982.3
99978.1
99973.9
99970.1
99966.6
99963.7
99961.2
99959.3
99957.8
99956.8
99955.9
99955.3
99954.6
99953.9
99953.1
99952.2
99951.1
99949.8
99948.3
99946
99943.4
99939.9
99936.9
99934.4
99932.9
99932.7
99933.7
99935.6
99938.1
99941
99943.7
99946.3
99948.4
99951.2
99953.9
99957.6
99961.7
99966.8
99971.6
99976.9
99981.2
99985.9
99988.3
99991.9
99993.5
99997.7
99997.4
100043
100043
100042
100041
100039
100038
100037
100035
100034
100033
100032
100031
100030
100029
100028
100028
100026
100024
100022
100020
100017
100014
100011
100009
100007
100005
100004
100004
100004
100005
100006
100007
100007
100007
100005
100004
100003
100002
100002
100001
100001
100000
100000
100000
100000
100001
100001
100000
99998.9
99996.9
99994
99990.5
99986.5
99982.3
99978
99973.7
99969.8
99966.2
99963.1
99960.5
99958.7
99957.2
99956.3
99955.3
99954.5
99953.6
99952.9
99952
99951.2
99950.1
99949
99947.3
99944.9
99942.2
99939.2
99936.6
99934.7
99933.9
99934.1
99935.7
99937.9
99940.7
99943.7
99946.6
99949.3
99951.7
99954.3
99956.9
99960.2
99963.7
99968.2
99972.2
99977.1
99981
99985.1
99987.6
99990.8
99991.9
99997.1
99995.6
100040
100040
100039
100038
100036
100034
100032
100030
100028
100027
100025
100023
100021
100020
100018
100017
100015
100013
100011
100010
100008
100007
100006
100005
100004
100004
100004
100004
100004
100005
100006
100007
100007
100007
100006
100005
100003