/*--------------------------------*- C++ -*----------------------------------*\
| =========                 |                                                 |
| \\      /  F ield         | OpenFOAM: The Open Source CFD Toolbox           |
|  \\    /   O peration     | Version:  2.3.0                                 |
|   \\  /    A nd           | Web:      www.OpenFOAM.org                      |
|    \\/     M anipulation  |                                                 |
\*---------------------------------------------------------------------------*/
FoamFile
{
    version     2.0;
    format      ascii;
    class       surfaceScalarField;
    location    "0.04";
    object      phi;
}
// * * * * * * * * * * * * * * * * * * * * * * * * * * * * * * * * * * * * * //

dimensions      [1 0 -1 0 0 0 0];

internalField   nonuniform List<scalar> 
9850
(
1.42873e-06
-4.58347e-08
1.43353e-06
-1.01006e-08
1.42054e-06
6.39409e-09
1.38777e-06
2.27319e-08
1.33874e-06
3.42163e-08
1.29743e-06
2.24366e-08
1.27282e-06
4.08722e-09
1.26284e-06
-9.18336e-09
1.26539e-06
-1.75842e-08
1.2713e-06
-1.46691e-08
1.27755e-06
-9.07755e-09
1.29076e-06
-1.12981e-08
1.30903e-06
-1.30843e-08
1.32603e-06
-1.04467e-08
1.31779e-06
1.4308e-08
1.29658e-06
2.62864e-08
1.2456e-06
5.46589e-08
1.18027e-06
6.7103e-08
1.14232e-06
3.81123e-08
1.14446e-06
-4.6142e-09
1.15372e-06
-1.40978e-08
1.18771e-06
-4.10069e-08
1.25805e-06
-7.89032e-08
1.36579e-06
-1.17484e-07
1.41364e-06
-5.97336e-08
1.42751e-06
-1.88421e-08
1.41337e-06
1.19197e-08
1.37036e-06
4.24925e-08
1.31843e-06
5.05539e-08
1.28919e-06
2.61546e-08
1.29295e-06
-8.08085e-09
1.30208e-06
-1.25544e-08
1.33421e-06
-3.48148e-08
1.38834e-06
-5.56459e-08
1.42127e-06
-3.47065e-08
1.40343e-06
1.80445e-08
1.36467e-06
3.86556e-08
1.27216e-06
9.25913e-08
1.14602e-06
1.26295e-07
1.07935e-06
6.62985e-08
1.0775e-06
1.27969e-09
1.08915e-06
-1.20136e-08
1.11837e-06
-2.94472e-08
1.16665e-06
-4.88265e-08
1.2282e-06
-6.23667e-08
1.29653e-06
-6.92929e-08
1.37032e-06
-7.47328e-08
1.4503e-06
-8.1127e-08
1.50489e-06
-5.60726e-08
1.50568e-06
-3.9876e-09
1.4661e-06
3.79739e-08
1.3797e-06
8.46574e-08
1.29781e-06
8.05341e-08
1.27266e-06
2.33885e-08
1.27252e-06
-2.0878e-09
1.26585e-06
3.5112e-09
1.27313e-06
-9.46931e-09
1.29396e-06
-2.2675e-08
1.32846e-06
-3.587e-08
1.35697e-06
-2.92106e-08
1.35409e-06
2.20704e-09
1.32921e-06
2.48714e-08
1.25795e-06
7.10546e-08
1.17001e-06
8.93263e-08
1.12415e-06
4.54274e-08
1.11058e-06
1.47196e-08
1.11801e-06
-8.54987e-09
1.14137e-06
-2.37478e-08
1.17935e-06
-3.84945e-08
1.22105e-06
-4.20344e-08
1.27544e-06
-5.49086e-08
1.34996e-06
-7.47781e-08
1.43145e-06
-8.08959e-08
1.47307e-06
-4.07107e-08
1.45879e-06
1.43653e-08
1.38071e-06
7.83806e-08
1.24245e-06
1.38419e-07
1.13421e-06
1.08037e-07
1.09696e-06
3.73527e-08
1.10095e-06
-4.66896e-09
1.10321e-06
-3.05723e-09
1.13321e-06
-3.06932e-08
1.19262e-06
-5.9975e-08
1.27232e-06
-7.99702e-08
1.32516e-06
-5.29294e-08
1.32706e-06
-1.80279e-09
1.27997e-06
4.71318e-08
1.15827e-06
1.22132e-07
1.02094e-06
1.37901e-07
9.58566e-07
5.92431e-08
9.43841e-07
1.00669e-08
9.4385e-07
-6.20254e-09
9.54326e-07
-1.74847e-08
9.74099e-07
-2.82547e-08
9.95764e-07
-3.20008e-08
1.0216e-06
-3.7094e-08
1.05501e-06
-4.53638e-08
1.09572e-06
-5.28783e-08
1.15846e-06
-7.67431e-08
-4.57888e-08
4.36657e-06
3.7774e-07
4.24594e-06
8.31777e-08
4.25334e-06
-2.00601e-08
4.2843e-06
-3.6071e-08
4.25917e-06
1.64633e-08
4.15175e-06
7.45825e-08
3.97494e-06
1.21367e-07
3.80597e-06
1.04142e-07
3.68365e-06
6.06089e-08
3.61109e-06
3.08717e-08
3.59513e-06
-2.66601e-09
3.62713e-06
-3.79576e-08
3.70686e-06
-7.78203e-08
3.81731e-06
-1.01698e-07
3.83101e-06
1.84009e-08
3.7979e-06
7.45858e-08
3.69205e-06
1.71537e-07
3.54712e-06
2.17746e-07
3.45524e-06
1.30272e-07
3.47208e-06
-2.83604e-08
3.50602e-06
-6.20939e-08
3.61917e-06
-1.7446e-07
3.85856e-06
-3.43131e-07
4.19042e-06
-4.76882e-07
4.32733e-06
-2.30326e-07
4.33232e-06
-3.54357e-08
4.25661e-06
8.27488e-08
4.09183e-06
2.06755e-07
3.90357e-06
2.3564e-07
3.78251e-06
1.38501e-07
3.77357e-06
-1.13367e-08
3.76745e-06
-1.59148e-08
3.80571e-06
-8.08234e-08
3.94577e-06
-2.00283e-07
4.10808e-06
-2.02674e-07
4.1064e-06
2.03343e-08
4.03565e-06
1.09026e-07
3.84045e-06
2.87921e-07
3.49894e-06
4.68201e-07
3.21106e-06
3.52833e-07
3.12185e-06
8.8613e-08
3.13443e-06
-2.66726e-08
3.17093e-06
-6.85198e-08
3.25664e-06
-1.40382e-07
3.38911e-06
-2.05707e-07
3.54717e-06
-2.4315e-07
3.72121e-06
-2.64237e-07
3.96925e-06
-3.27996e-07
4.26957e-06
-3.26886e-07
4.43739e-06
-1.45871e-07
4.44424e-06
4.92418e-08
4.3359e-06
2.0232e-07
4.11516e-06
3.0617e-07
3.89233e-06
2.45907e-07
3.77216e-06
1.13637e-07
3.69983e-06
6.60829e-08
3.68545e-06
-6.18043e-09
3.71807e-06
-6.83348e-08
3.82117e-06
-1.47501e-07
3.95927e-06
-1.64154e-07
4.01672e-06
-5.02149e-08
3.97588e-06
7.21406e-08
3.8196e-06
2.31794e-07
3.6261e-06
2.90008e-07
3.48215e-06
1.90066e-07
3.3669e-06
1.32618e-07
3.3324e-06
2.13791e-08
3.32888e-06
-2.73609e-08
3.34233e-06
-6.39916e-08
3.37837e-06
-9.75502e-08
3.43772e-06
-1.43892e-07
3.56571e-06
-2.34677e-07
3.84313e-06
-3.38018e-07
4.1321e-06
-2.52371e-07
4.24673e-06
-3.22313e-08
4.12133e-06
2.52331e-07
3.77053e-06
5.18213e-07
3.44766e-06
4.46336e-07
3.3092e-06
1.77828e-07
3.29759e-06
1.03904e-09
3.27059e-06
9.31841e-09
3.31289e-06
-9.12151e-08
3.44393e-06
-2.03591e-07
3.68303e-06
-3.06679e-07
3.90047e-06
-2.50421e-07
3.96722e-06
-4.79238e-08
3.87981e-06
1.50609e-07
3.58062e-06
4.3959e-07
3.1544e-06
5.69396e-07
2.86611e-06
3.34364e-07
2.73777e-06
1.05954e-07
2.67646e-06
1.1557e-08
2.64748e-06
-3.27914e-08
2.6554e-06
-8.18235e-08
2.67352e-06
-9.72413e-08
2.70567e-06
-1.1697e-07
2.75141e-06
-1.38036e-07
2.81086e-06
-1.57119e-07
2.8954e-06
-2.11192e-07
-1.4427e-07
7.55026e-06
-4.18792e-07
7.63623e-06
-3.65511e-08
7.41645e-06
1.79281e-07
7.15059e-06
1.90295e-07
6.94172e-06
1.59098e-07
6.7515e-06
1.78741e-07
6.5432e-06
2.35497e-07
6.36182e-06
1.96513e-07
6.24665e-06
1.04419e-07
6.16855e-06
6.43725e-08
6.13218e-06
1.68851e-08
6.17456e-06
-7.3154e-08
6.27456e-06
-1.54796e-07
6.42481e-06
-2.21672e-07
6.46528e-06
6.33659e-09
6.44116e-06
1.23621e-07
6.3355e-06
2.95565e-07
6.16022e-06
4.03314e-07
6.00146e-06
2.89686e-07
5.99638e-06
-3.28162e-08
6.03485e-06
-1.22341e-07
6.18786e-06
-3.59001e-07
6.53783e-06
-7.31456e-07
7.09495e-06
-1.07487e-06
7.39441e-06
-5.74008e-07
7.3924e-06
-4.63952e-08
7.23356e-06
2.38432e-07
6.88683e-06
5.56871e-07
6.4738e-06
6.46461e-07
6.16915e-06
4.3105e-07
6.11107e-06
2.8447e-08
6.12241e-06
-4.11294e-08
6.26909e-06
-2.39432e-07
6.5952e-06
-5.33765e-07
6.87338e-06
-4.89199e-07
6.81952e-06
7.43955e-08
6.66295e-06
2.64538e-07
6.28419e-06
6.66709e-07
5.70482e-06
1.04775e-06
5.28176e-06
7.73216e-07
5.14085e-06
2.24731e-07
5.14654e-06
-3.93935e-08
5.19166e-06
-1.27624e-07
5.29255e-06
-2.72859e-07
5.38162e-06
-3.65084e-07
5.36433e-06
-3.60809e-07
5.17973e-06
-3.01192e-07
5.03293e-06
-4.43497e-07
5.27904e-06
-5.7928e-07
5.81183e-06
-5.01486e-07
6.36179e-06
-1.43685e-07
6.63936e-06
1.59202e-07
6.53277e-06
5.66577e-07
6.28748e-06
6.30833e-07
6.07307e-06
3.48629e-07
5.90783e-06
2.16202e-07
5.82809e-06
2.68915e-08
5.72745e-06
-7.83366e-08
5.70498e-06
-2.85661e-07
5.86728e-06
-3.62236e-07
6.04749e-06
-2.08593e-07
6.16658e-06
5.17093e-08
6.13338e-06
3.78299e-07
5.9452e-06
5.64164e-07
5.72227e-06
4.33224e-07
5.44562e-06
4.13358e-07
5.27569e-06
1.52802e-07
5.13776e-06
3.69026e-08
4.98183e-06
-1.50677e-08
4.75436e-06
-2.88165e-08
4.41111e-06
-4.49359e-08
4.0111e-06
-1.55546e-07
3.88702e-06
-4.54395e-07
4.16539e-06
-4.72631e-07
4.76273e-06
-3.89617e-07
5.47994e-06
9.46419e-08
5.77367e-06
6.67463e-07
5.60561e-06
8.63961e-07
5.3849e-06
4.23249e-07
5.2904e-06
7.50791e-08
5.12845e-06
8.89076e-08
5.01452e-06
-9.29438e-08
5.01129e-06
-3.21951e-07
5.29064e-06
-6.02162e-07
5.68083e-06
-6.01801e-07
5.94643e-06
-2.14136e-07
6.11386e-06
1.55713e-07
5.94633e-06
7.91083e-07
5.3494e-06
1.20122e-06
4.77087e-06
8.94555e-07
4.42584e-06
3.73521e-07
4.23157e-06
1.01278e-07
4.08363e-06
1.14037e-08
4.01629e-06
-1.10427e-07
4.03206e-06
-2.01859e-07
4.10396e-06
-2.73457e-07
4.19762e-06
-3.10847e-07
4.26202e-06
-2.95809e-07
4.30205e-06
-3.34678e-07
-2.4748e-07
1.08117e-05
-3.06816e-07
1.07436e-05
4.21312e-08
1.06056e-05
3.11508e-07
1.04161e-05
3.36432e-07
1.01794e-05
3.15136e-07
9.87075e-06
3.78037e-07
9.55299e-06
4.30865e-07
9.30758e-06
3.24925e-07
9.13837e-06
1.78322e-07
8.98219e-06
1.5877e-07
8.84482e-06
1.28977e-07
8.80528e-06
-2.7051e-08
8.85105e-06
-1.71437e-07
8.96501e-06
-2.96416e-07
8.98869e-06
2.01459e-08
8.91685e-06
2.2929e-07
8.74739e-06
4.90692e-07
8.46536e-06
7.01042e-07
8.17136e-06
5.85553e-07
8.09912e-06
2.91678e-08
8.1498e-06
-2.01072e-07
8.37174e-06
-6.20517e-07
8.91013e-06
-1.31813e-06
9.72668e-06
-1.93787e-06
1.02377e-05
-1.12618e-06
1.02636e-05
-7.78539e-08
1.00888e-05
4.16933e-07
9.61998e-06
1.03738e-06
8.98438e-06
1.28593e-06
8.48325e-06
9.20244e-07
8.3809e-06
1.11213e-07
8.40169e-06
-7.82671e-08
8.60108e-06
-4.52969e-07
9.04777e-06
-9.88996e-07
9.53265e-06
-9.82901e-07
9.53621e-06
7.11222e-08
9.35483e-06
4.44662e-07
8.79363e-06
1.2278e-06
7.89455e-06
1.9465e-06
7.30448e-06
1.35829e-06
7.15226e-06
3.65236e-07
7.15989e-06
-7.13267e-08
7.1711e-06
-1.94656e-07
7.1848e-06
-4.03472e-07
7.11528e-06
-4.94217e-07
6.9047e-06
-4.37721e-07
6.51042e-06
-2.95821e-07
5.99083e-06
-3.75387e-07
5.58115e-06
-6.15125e-07
5.57167e-06
-5.99019e-07
5.92096e-06
-4.3941e-07
6.71704e-06
-1.57046e-07
7.77885e-06
5.57506e-07
8.34213e-06
7.58932e-07
8.38621e-06
3.97823e-07
8.23787e-06
3.42709e-07
8.0511e-06
1.15886e-07
7.79126e-06
-3.82195e-08
7.46834e-06
-2.8387e-07
7.25663e-06
-4.82209e-07
7.2541e-06
-2.71226e-07
7.40566e-06
-5.80075e-08
7.64546e-06
3.88473e-07
7.84318e-06
7.69231e-07
7.73845e-06
6.77988e-07
7.21418e-06
9.30518e-07
6.71217e-06
5.04118e-07
6.19036e-06
2.90042e-07
5.65935e-06
1.91174e-07
5.16326e-06
1.34386e-07
4.71754e-06
5.88476e-08
4.31989e-06
-1.05709e-07
4.0242e-06
-4.88834e-07
3.995e-06
-6.60505e-07
4.26858e-06
-6.17842e-07
4.82577e-06
-2.3651e-07
5.96582e-06
3.43307e-07
6.91292e-06
1.11821e-06
7.03884e-06
5.37287e-07
6.93793e-06
1.72769e-07
6.67869e-06
2.26276e-07
6.4285e-06
-5.38537e-08
6.23925e-06
-3.75343e-07
6.37087e-06
-9.38413e-07
6.80107e-06
-1.01784e-06
7.16211e-06
-4.97925e-07
7.51344e-06
2.82554e-08
7.74507e-06
1.02912e-06
7.26636e-06
1.94293e-06
6.48037e-06
1.66671e-06
5.9676e-06
7.87759e-07
5.66115e-06
2.37625e-07
5.39716e-06
1.01994e-07
5.24225e-06
-1.1442e-07
5.19389e-06
-2.98635e-07
5.23069e-06
-4.44357e-07
5.31717e-06
-5.1801e-07
5.40952e-06
-4.93972e-07
5.45498e-06
-4.95604e-07
-3.76359e-07
1.27333e-05
5.70691e-07
1.24277e-05
4.61685e-07
1.20972e-05
6.61016e-07
1.19078e-05
4.82615e-07
1.18787e-05
2.54125e-07
1.18283e-05
3.03293e-07
1.17478e-05
3.68745e-07
1.16261e-05
3.08126e-07
1.14939e-05
1.95725e-07
1.13546e-05
2.20943e-07
1.12791e-05
1.70759e-07
1.13166e-05
-5.89461e-08
1.14743e-05
-2.9705e-07
1.17572e-05
-5.33469e-07
1.193e-05
-1.08642e-07
1.18576e-05
3.44555e-07
1.16176e-05
7.63689e-07
1.11112e-05
1.2287e-06
1.04933e-05
1.2073e-06
1.02066e-05
3.05719e-07
1.02404e-05
-2.67165e-07
1.04929e-05
-9.20541e-07
1.11508e-05
-2.03023e-06
1.2208e-05
-2.98723e-06
1.30253e-05
-1.91529e-06
1.31223e-05
-1.31457e-07
1.28928e-05
6.75287e-07
1.22248e-05
1.73239e-06
1.1342e-05
2.1835e-06
1.06923e-05
1.56146e-06
1.05837e-05
2.02067e-07
1.0634e-05
-1.52153e-07
1.09746e-05
-8.22855e-07
1.17025e-05
-1.71401e-06
1.24446e-05
-1.69382e-06
1.25017e-05
3.98913e-08
1.22389e-05
7.2253e-07
1.1472e-05
2.00295e-06
1.03216e-05
3.09942e-06
9.54988e-06
2.12044e-06
9.23077e-06
6.54282e-07
9.12633e-06
-4.36674e-08
8.91992e-06
-1.53189e-07
8.66347e-06
-4.1356e-07
8.34975e-06
-5.22511e-07
7.99092e-06
-4.80509e-07
7.56253e-06
-3.17173e-07
7.07716e-06
-3.72334e-07
6.56157e-06
-5.91441e-07
6.1288e-06
-6.52164e-07
6.03239e-06
-4.53287e-07
6.37436e-06
-3.81901e-07
7.5188e-06
3.35726e-07
9.267e-06
9.72169e-07
1.01794e-05
-1.48895e-08
1.01214e-05
3.85639e-07
9.88575e-06
2.2214e-07
9.58967e-06
-4.37035e-08
9.20045e-06
-3.14825e-07
8.72901e-06
-5.02658e-07
8.33939e-06
-2.36972e-07
8.26457e-06
-1.16223e-08
8.40054e-06
4.12927e-07
8.7885e-06
9.81169e-07
8.91884e-06
9.41961e-07
8.24235e-06
1.56646e-06
7.44712e-06
9.87859e-07
6.58427e-06
6.58116e-07
5.85066e-06
4.58807e-07
5.31192e-06
2.83454e-07
4.94265e-06
9.20571e-08
4.66459e-06
-1.49377e-07
4.45707e-06
-5.71964e-07
4.32829e-06
-7.98606e-07
4.46467e-06
-8.22356e-07
4.74221e-06
-4.77071e-07
5.43489e-06
1.24891e-08
6.86239e-06
1.00851e-06
8.04173e-06
7.98121e-07
8.35684e-06
-3.99361e-08
8.1122e-06
3.98804e-07
7.82285e-06
-1.19338e-08
7.5066e-06
-3.95788e-07
7.39212e-06
-1.18823e-06
7.68478e-06
-1.50845e-06
8.05598e-06
-8.29339e-07
8.38347e-06
-1.39472e-07
8.92376e-06
1.06172e-06
8.81567e-06
2.76533e-06
8.01052e-06
2.51183e-06
7.33851e-06
1.36089e-06
6.9271e-06
4.2189e-07
6.52988e-06
2.43195e-07
6.26008e-06
-8.36461e-08
6.13823e-06
-3.90307e-07
6.11932e-06
-6.23713e-07
6.15018e-06
-7.25525e-07
6.18711e-06
-6.79462e-07
6.17937e-06
-6.41231e-07
-5.03919e-07
1.54583e-05
-6.06696e-07
1.6304e-05
-2.43494e-07
1.65168e-05
4.73486e-07
1.61621e-05
7.93452e-07
1.55895e-05
7.36553e-07
1.51073e-05
6.55319e-07
1.48604e-05
4.60512e-07
1.47141e-05
3.00751e-07
1.4594e-05
1.85328e-07
1.43695e-05
3.54416e-07
1.40265e-05
4.70901e-07
1.38264e-05
1.44124e-07
1.38579e-05
-2.95699e-07
1.40677e-05
-6.93852e-07
1.42951e-05
-2.85406e-07
1.4293e-05
3.97191e-07
1.40976e-05
9.9892e-07
1.35937e-05
1.7594e-06
1.28685e-05
1.93718e-06
1.24075e-05
7.45894e-07
1.22343e-05
-1.58232e-07
1.20971e-05
-9.43058e-07
1.1949e-05
-2.21423e-06
1.28451e-05
-3.48407e-06
1.46405e-05
-2.7096e-06
1.55289e-05
-3.75344e-07
1.56041e-05
9.20788e-07
1.489e-05
2.59451e-06
1.38391e-05
3.30552e-06
1.30423e-05
2.36675e-06
1.28396e-05
3.92066e-07
1.27435e-05
-1.38349e-07
1.2552e-05
-9.10579e-07
1.29152e-05
-2.4031e-06
1.41232e-05
-2.52993e-06
1.48738e-05
-3.19642e-07
1.495e-05
9.07415e-07
1.42378e-05
2.88523e-06
1.30035e-05
4.42386e-06
1.19258e-05
3.19612e-06
1.10838e-05
1.42217e-06
1.05572e-05
2.72478e-07
9.94281e-06
1.01494e-07
9.34983e-06
-2.78941e-07
8.86073e-06
-5.19037e-07
8.48946e-06
-5.7603e-07
8.11819e-06
-4.19052e-07
7.70096e-06
-4.37087e-07
7.254e-06
-6.20202e-07
6.75197e-06
-6.31137e-07
6.36331e-06
-4.54279e-07
6.39105e-06
-3.94725e-07
6.99971e-06
1.48313e-07
9.03982e-06
7.62506e-07
1.12353e-05
-1.41494e-07
1.17545e-05
5.95146e-09
1.14715e-05
4.05448e-07
1.10856e-05
-5.1319e-08
1.05518e-05
-3.29342e-07
9.92666e-06
-4.67221e-07
9.27294e-06
-1.24635e-07
8.95253e-06
1.7921e-07
8.91639e-06
5.18486e-07
9.2305e-06
1.26805e-06
9.47992e-06
1.3373e-06
8.78439e-06
2.20029e-06
7.89086e-06
1.48684e-06
6.87641e-06
1.07391e-06
6.05094e-06
7.40287e-07
5.48214e-06
4.24794e-07
5.10848e-06
1.00088e-07
4.83809e-06
-2.14768e-07
4.69067e-06
-7.0932e-07
4.66506e-06
-9.81387e-07
4.87845e-06
-1.09695e-06
5.07549e-06
-6.56262e-07
5.40839e-06
-1.71054e-07
6.41314e-06
6.63865e-07
8.11356e-06
1.08762e-06
9.34236e-06
-2.57745e-07
9.29099e-06
4.50587e-07
9.06212e-06
1.65269e-08
8.71002e-06
-4.41081e-07
8.44983e-06
-1.39542e-06
8.48517e-06
-1.98787e-06
8.70696e-06
-1.12766e-06
8.97014e-06
-3.45801e-07
9.58527e-06
9.577e-07
9.89619e-06
3.58696e-06
9.33635e-06
3.3031e-06
8.56667e-06
2.08346e-06
8.08199e-06
6.32123e-07
7.54315e-06
4.36569e-07
7.12309e-06
3.36304e-09
6.848e-06
-4.20196e-07
6.687e-06
-7.43123e-07
6.60969e-06
-8.93126e-07
6.59013e-06
-8.58984e-07
6.5612e-06
-8.02725e-07
-6.36025e-07
1.68182e-05
-4.11323e-07
1.67958e-05
-4.37317e-08
1.68179e-05
4.79353e-07
1.67914e-05
7.78456e-07
1.66896e-05
7.47578e-07
1.65956e-05
6.17694e-07
1.66063e-05
2.91642e-07
1.66774e-05
6.8075e-08
1.67389e-05
-1.31571e-08
1.66616e-05
3.30327e-07
1.65168e-05
5.63905e-07
1.64054e-05
2.50206e-07
1.64818e-05
-3.41135e-07
1.66751e-05
-8.39059e-07
1.68274e-05
-3.82625e-07
1.67412e-05
5.38792e-07
1.64364e-05
1.34839e-06
1.57438e-05
2.47948e-06
1.4844e-05
2.83436e-06
1.4241e-05
1.29579e-06
1.35888e-05
2.92885e-07
1.23075e-05
-2.4957e-07
9.93746e-06
-1.20519e-06
8.20576e-06
-3.01203e-06
9.34663e-06
-2.75734e-06
1.21999e-05
-1.21514e-06
1.4925e-05
3.4503e-07
1.59225e-05
2.74838e-06
1.57853e-05
4.25207e-06
1.52558e-05
3.0052e-06
1.48971e-05
7.55738e-07
1.44562e-05
5.19766e-08
1.35149e-05
-6.3591e-07
1.21657e-05
-2.2607e-06
1.19035e-05
-2.67252e-06
1.2967e-05
-1.18783e-06
1.45246e-05
4.56207e-07
1.54997e-05
2.9241e-06
1.51143e-05
5.4071e-06
1.39693e-05
4.41982e-06
1.26625e-05
2.63534e-06
1.17479e-05
8.33312e-07
1.07617e-05
5.18829e-07
9.88336e-06
-5.43027e-08
9.24382e-06
-4.87679e-07
8.81638e-06
-6.9082e-07
8.41323e-06
-5.28896e-07
7.96387e-06
-5.08615e-07
7.52558e-06
-6.61752e-07
7.05336e-06
-6.12484e-07
6.53518e-06
-3.8352e-07
6.35678e-06
-2.82913e-07
6.62292e-06
4.04148e-08
7.84924e-06
4.67377e-07
1.05477e-05
1.67607e-07
1.24669e-05
-8.57224e-07
1.23248e-05
5.34606e-07
1.19201e-05
-8.50552e-08
1.121e-05
-3.02588e-07
1.04026e-05
-3.63893e-07
9.5901e-06
3.76523e-08
9.15056e-06
4.11317e-07
9.0379e-06
6.40195e-07
9.32581e-06
1.60138e-06
9.72146e-06
1.81129e-06
9.13505e-06
2.73241e-06
8.28325e-06
1.93633e-06
7.18847e-06
1.51169e-06
6.23428e-06
1.07783e-06
5.51817e-06
6.28809e-07
5.00338e-06
1.86394e-07
4.64749e-06
-2.24357e-07
4.58353e-06
-9.06478e-07
4.81298e-06
-1.29003e-06
5.25182e-06
-1.50826e-06
5.52872e-06
-8.76196e-07
5.72702e-06
-2.70855e-07
6.35242e-06
3.64599e-07
7.79018e-06
9.15291e-07
9.60924e-06
2.59621e-07
1.02021e-05
9.1274e-08
1.00765e-05
5.96e-08
9.70356e-06
-4.85016e-07
9.34082e-06
-1.58556e-06
9.18791e-06
-2.37026e-06
9.19685e-06
-1.45394e-06
9.31887e-06
-4.55547e-07
9.85357e-06
7.71781e-07
1.0553e-05
4.17951e-06
1.04136e-05
4.18432e-06
9.60887e-06
2.83645e-06
9.07564e-06
8.94057e-07
8.4013e-06
6.84725e-07
7.80784e-06
1.55362e-07
7.37599e-06
-3.97524e-07
7.08796e-06
-8.20116e-07
6.9014e-06
-1.02106e-06
6.82107e-06
-1.02263e-06
6.84392e-06
-1.01826e-06
-8.0728e-07
2.11189e-05
9.59333e-07
2.05179e-05
6.95218e-07
2.00736e-05
9.48078e-07
1.96718e-05
1.14149e-06
1.91946e-05
1.13966e-06
1.87098e-05
9.74103e-07
1.84522e-05
3.93477e-07
1.83711e-05
-1.54038e-08
1.84365e-05
-2.2483e-07
1.84748e-05
1.82846e-07
1.85049e-05
4.7204e-07
1.85235e-05
2.13647e-07
1.86788e-05
-4.80931e-07
1.89943e-05
-1.114e-06
1.94278e-05
-7.51938e-07
1.92261e-05
7.98664e-07
1.8755e-05
1.86588e-06
1.78442e-05
3.40609e-06
1.6777e-05
3.86148e-06
1.58266e-05
2.07306e-06
1.44351e-05
1.13375e-06
1.20724e-05
8.66753e-07
9.06566e-06
-8.04725e-09
6.69849e-06
-2.08841e-06
6.38852e-06
-2.57155e-06
7.39862e-06
-1.89323e-06
9.22488e-06
-3.5533e-07
1.31027e-05
1.86434e-06
1.63827e-05
3.78331e-06
1.70394e-05
2.80785e-06
1.64963e-05
1.32007e-06
1.57313e-05
3.46957e-07
1.43767e-05
-3.20497e-07
1.24522e-05
-1.7372e-06
1.06083e-05
-2.25394e-06
1.01073e-05
-1.08332e-06
1.1026e-05
-2.86462e-07
1.32938e-05
2.00979e-06
1.53579e-05
5.3375e-06
1.53149e-05
5.10575e-06
1.38768e-05
3.99918e-06
1.26812e-05
1.57496e-06
1.13461e-05
1.06706e-06
1.01841e-05
2.73137e-07
9.36886e-06
-4.14407e-07
8.85548e-06
-8.01145e-07
8.40638e-06
-6.50605e-07
7.91802e-06
-5.62269e-07
7.48995e-06
-7.2008e-07
7.11677e-06
-6.31894e-07
6.62175e-06
-2.76993e-07
6.30852e-06
-1.18631e-07
6.36586e-06
6.2604e-09
6.99792e-06
2.87189e-07
9.00112e-06
3.86039e-09
1.18411e-05
-6.77954e-07
1.24369e-05
7.11694e-08
1.22109e-05
-1.73185e-07
1.15306e-05
-3.21332e-07
1.06433e-05
-2.37189e-07
9.64908e-06
2.99883e-07
9.03681e-06
6.91856e-07
8.86009e-06
7.54815e-07
9.18025e-06
1.8822e-06
9.79928e-06
2.32241e-06
9.36151e-06
3.15552e-06
8.53942e-06
2.36828e-06
7.35952e-06
1.98223e-06
6.25299e-06
1.46546e-06
5.37159e-06
9.15182e-07
4.73881e-06
3.34122e-07
4.38012e-06
-2.3068e-07
4.53445e-06
-1.20339e-06
4.98899e-06
-1.71628e-06
5.5736e-06
-1.9835e-06
6.06935e-06
-1.17488e-06
6.36978e-06
-4.29293e-07
6.74426e-06
1.92908e-07
7.68515e-06
7.65009e-07
9.5749e-06
5.94792e-07
1.06493e-05
-2.9826e-07
1.06444e-05
7.40904e-08
1.02367e-05
-4.84282e-07
9.76103e-06
-1.73854e-06
9.53264e-06
-2.70956e-06
9.46772e-06
-1.7676e-06
9.48281e-06
-4.98369e-07
9.89674e-06
5.792e-07
1.0844e-05
4.41635e-06
1.11879e-05
5.1615e-06
1.0461e-05
3.54787e-06
9.89758e-06
1.20984e-06
9.10851e-06
9.89227e-07
8.3178e-06
3.87452e-07
7.68641e-06
-2.84455e-07
7.26239e-06
-8.41733e-07
7.04016e-06
-1.14354e-06
7.0322e-06
-1.25331e-06
7.26834e-06
-1.39322e-06
-1.08723e-06
2.06951e-05
-1.6804e-06
2.1367e-05
1.0822e-07
2.15946e-05
7.17641e-07
2.16872e-05
9.98527e-07
2.1582e-05
1.15617e-06
2.13685e-05
1.05801e-06
2.12052e-05
3.96626e-07
2.11912e-05
-1.7393e-07
2.12483e-05
-4.35576e-07
2.11559e-05
1.49041e-07
2.09223e-05
6.08202e-07
2.05391e-05
4.94421e-07
2.02567e-05
-3.48282e-07
2.03369e-05
-1.31872e-06
2.10094e-05
-1.21751e-06
2.12887e-05
7.13595e-07
2.10473e-05
2.26335e-06
2.01151e-05
4.39684e-06
1.8775e-05
5.10942e-06
1.71078e-05
3.47253e-06
1.48199e-05
2.53484e-06
1.17881e-05
2.15471e-06
8.72697e-06
1.08487e-06
6.54785e-06
-1.17016e-06
5.75207e-06
-2.5471e-06
6.15637e-06
-2.40938e-06
7.00293e-06
-9.98195e-07
9.35406e-06
1.04053e-06
1.38187e-05
2.9702e-06
1.71862e-05
1.64413e-06
1.66502e-05
1.87686e-06
1.55556e-05
8.03864e-07
1.38568e-05
4.14746e-08
1.19882e-05
-1.36417e-06
1.03761e-05
-1.89098e-06
9.36659e-06
-1.08982e-06
9.30197e-06
-3.04358e-07
1.03433e-05
1.42938e-06
1.33071e-05
4.46693e-06
1.54603e-05
5.42215e-06
1.46748e-05
4.81182e-06
1.33185e-05
2.48937e-06
1.17666e-05
1.68294e-06
1.03569e-05
6.70344e-07
9.33162e-06
-2.84096e-07
8.65804e-06
-8.7275e-07
8.1215e-06
-7.24613e-07
7.61713e-06
-5.91555e-07
7.21508e-06
-7.50974e-07
6.93999e-06
-6.81414e-07
6.60812e-06
-2.14387e-07
6.34662e-06
-1.84099e-08
6.2759e-06
6.8309e-08
6.56767e-06
8.34566e-08
7.94331e-06
-9.79207e-08
1.06706e-05
-1.60512e-07
1.17645e-05
-6.02757e-07
1.18308e-05
-3.82138e-07
1.13802e-05
-4.82664e-07
1.06199e-05
-2.0138e-07
9.56993e-06
6.15347e-07
8.80507e-06
9.98042e-07
8.54189e-06
9.42293e-07
8.83692e-06
2.0723e-06
9.66634e-06
2.82261e-06
9.41424e-06
3.46973e-06
8.59946e-06
2.81324e-06
7.33555e-06
2.48832e-06
6.08699e-06
1.90363e-06
5.09402e-06
1.23436e-06
4.44317e-06
4.91257e-07
4.20684e-06
-2.90286e-07
4.53875e-06
-1.5685e-06
5.14167e-06
-2.24357e-06
6.05724e-06
-2.59749e-06
6.99205e-06
-1.65944e-06
7.39398e-06
-6.53335e-07
7.6124e-06
1.25691e-07
8.18135e-06
7.55115e-07
9.68662e-06
7.91292e-07
1.07004e-05
-4.90529e-07
1.07983e-05
-8.09796e-09
1.04109e-05
-4.85932e-07
9.80186e-06
-1.81824e-06
9.52102e-06
-3.0183e-06
9.57049e-06
-2.09605e-06
9.64404e-06
-5.80965e-07
9.93299e-06
4.54379e-07
1.09455e-05
4.40833e-06
1.16833e-05
6.15031e-06
1.10785e-05
4.24728e-06
1.04686e-05
1.61358e-06
9.59091e-06
1.3404e-06
8.63894e-06
6.8412e-07
7.86815e-06
-1.24907e-07
7.39452e-06
-8.64602e-07
7.24226e-06
-1.31862e-06
7.38592e-06
-1.56515e-06
7.86786e-06
-1.90635e-06
-1.45341e-06
2.23961e-05
1.91406e-06
2.1597e-05
6.15084e-07
2.18742e-05
7.78691e-07
2.20073e-05
1.07699e-06
2.17711e-05
1.35475e-06
2.1204e-05
1.39765e-06
2.03235e-05
8.84545e-07
1.94127e-05
2.04709e-07
1.87618e-05
-1.08351e-07
1.82585e-05
3.36252e-07
1.75906e-05
9.95105e-07
1.649e-05
1.20098e-06
1.48599e-05
6.59194e-07
1.28606e-05
-3.16138e-07
1.2551e-05
-9.38587e-07
1.40842e-05
-3.00051e-07
1.59843e-05
1.27338e-06
1.77714e-05
3.68734e-06
1.81637e-05
5.36899e-06
1.64715e-05
4.83625e-06
1.39036e-05
3.88753e-06
1.07097e-05
3.41108e-06
7.9383e-06
1.93861e-06
6.27111e-06
-3.93154e-07
5.57876e-06
-2.48008e-06
6.03976e-06
-2.89488e-06
6.52171e-06
-1.46418e-06
7.65728e-06
3.25233e-07
1.03165e-05
2.13304e-06
1.45092e-05
2.88047e-06
1.51905e-05
1.59211e-06
1.42167e-05
1.18261e-06
1.23742e-05
3.89841e-07
1.05097e-05
-1.05544e-06
9.34151e-06
-1.7008e-06
8.58383e-06
-1.11899e-06
8.3816e-06
-3.08556e-07
8.70787e-06
1.2149e-06
1.06906e-05
3.53438e-06
1.37315e-05
5.61734e-06
1.47575e-05
4.51886e-06
1.34947e-05
3.55119e-06
1.18866e-05
2.27216e-06
1.02097e-05
1.1347e-06
8.87807e-06
-4.38252e-08
8.0323e-06
-8.48422e-07
7.50384e-06
-7.9746e-07
7.12762e-06
-6.73604e-07
6.96411e-06
-8.62882e-07
6.89529e-06
-8.04196e-07
6.71327e-06
-2.10103e-07
6.58998e-06
5.42756e-08
6.50024e-06
1.5237e-07
6.52318e-06
1.74547e-07
7.60829e-06
-1.44535e-07
1.00572e-05
-1.7769e-07
1.10399e-05
-1.11281e-06
1.11126e-05
-5.0695e-07
1.07979e-05
-6.9497e-07
1.02313e-05
-2.2318e-07
9.24327e-06
9.68048e-07
8.44687e-06
1.30662e-06
8.10499e-06
1.18861e-06
8.33893e-06
2.21321e-06
9.33052e-06
3.26938e-06
9.27016e-06
3.69591e-06
8.46759e-06
3.27667e-06
7.15909e-06
2.98533e-06
5.8418e-06
2.35609e-06
4.82025e-06
1.56885e-06
4.23304e-06
6.06081e-07
4.16678e-06
-4.24077e-07
4.58682e-06
-1.97659e-06
5.32135e-06
-2.85792e-06
6.66741e-06
-3.28833e-06
7.86985e-06
-2.30483e-06
8.2499e-06
-9.16515e-07
8.39408e-06
7.74269e-08
8.78404e-06
7.97731e-07
9.83641e-06
9.93671e-07
1.04713e-05
-5.40363e-07
1.05258e-05
-5.29477e-08
1.01464e-05
-5.19445e-07
9.50463e-06
-1.91436e-06
9.32334e-06
-3.4042e-06
9.60547e-06
-2.46629e-06
9.81255e-06
-7.59292e-07
1.0053e-05
3.80141e-07
1.10245e-05
4.27835e-06
1.19911e-05
7.0488e-06
1.15236e-05
4.91761e-06
1.08643e-05
2.11777e-06
9.93543e-06
1.72232e-06
8.85164e-06
1.04334e-06
7.94712e-06
8.8155e-08
7.42853e-06
-8.61843e-07
7.40462e-06
-1.5682e-06
7.77073e-06
-1.94863e-06
8.43666e-06
-2.52859e-06
-1.81075e-06
2.36528e-06
3.18384e-07
3.17373e-06
-3.87662e-08
4.21228e-06
-4.47277e-08
5.42055e-06
-3.24175e-08
6.69671e-06
2.88707e-07
7.29655e-06
8.41729e-07
6.78995e-06
1.08828e-06
5.81666e-06
5.20136e-07
5.51836e-06
-1.41446e-07
6.14483e-06
-3.92188e-07
7.3844e-06
2.90673e-07
7.97132e-06
8.76378e-07
7.40275e-06
1.18377e-06
6.16758e-06
6.36744e-08
5.83114e-06
-9.63123e-07
6.80457e-06
-1.20999e-06
8.44411e-06
2.39142e-07
1.16493e-05
1.70792e-06
1.47722e-05
4.49141e-06
1.3949e-05
5.25736e-06
1.16452e-05
4.98882e-06
8.89488e-06
4.23245e-06
6.72477e-06
2.73811e-06
5.45922e-06
-2.96925e-07
5.26844e-06
-2.47917e-06
5.93959e-06
-3.46044e-06
6.6621e-06
-2.2638e-06
6.82029e-06
3.34763e-07
7.86652e-06
1.97783e-06
1.14559e-05
3.06558e-06
1.25532e-05
1.23609e-06
1.17829e-05
1.42167e-06
1.0153e-05
5.28919e-07
8.78909e-06
-9.08052e-07
8.21717e-06
-1.8146e-06
7.94026e-06
-1.27588e-06
7.96114e-06
-4.40387e-07
7.84695e-06
1.33454e-06
8.85903e-06
3.02362e-06
1.14345e-05
5.53815e-06
1.3827e-05
4.84446e-06
1.30655e-05
4.1636e-06
1.15028e-05
2.86644e-06
9.60742e-06
1.65553e-06
8.06473e-06
2.93268e-07
7.22582e-06
-8.26453e-07
6.94224e-06
-1.01149e-06
6.95369e-06
-9.47597e-07
7.06477e-06
-1.0886e-06
7.10235e-06
-9.25193e-07
7.00146e-06
-1.98312e-07
6.91037e-06
1.18479e-07
6.82914e-06
2.32305e-07
6.9484e-06
2.50133e-07
7.93322e-06
-1.74414e-08
9.51831e-06
-4.08298e-07
9.91704e-06
-1.22727e-06
9.91572e-06
-6.27375e-07
9.6989e-06
-9.14018e-07
9.31777e-06
-2.22463e-07
8.59512e-06
1.25987e-06
7.97248e-06
1.52266e-06
7.6203e-06
1.43132e-06
7.81248e-06
2.35572e-06
8.88986e-06
3.65811e-06
8.94388e-06
3.87538e-06
8.15008e-06
3.73972e-06
6.83696e-06
3.44774e-06
5.51484e-06
2.76889e-06
4.55987e-06
1.84712e-06
4.12752e-06
6.62325e-07
4.19243e-06
-5.75657e-07
4.62746e-06
-2.39255e-06
5.59133e-06
-3.59765e-06
7.35308e-06
-4.09338e-06
8.70221e-06
-3.1263e-06
9.05267e-06
-1.24176e-06
9.15605e-06
2.93093e-08
9.48362e-06
8.64045e-07
1.01506e-05
1.29119e-06
1.03342e-05
-4.86212e-07
1.02122e-05
1.35428e-08
9.73081e-06
-5.54169e-07
9.10039e-06
-2.02815e-06
9.12968e-06
-3.88001e-06
9.60719e-06
-2.91822e-06
9.90157e-06
-9.77968e-07
1.01649e-05
3.16334e-07
1.10762e-05
4.12397e-06
1.21649e-05
7.82334e-06
1.17773e-05
5.62442e-06
1.1032e-05
2.75419e-06
1.00789e-05
2.11598e-06
8.92581e-06
1.42538e-06
7.96109e-06
3.37455e-07
7.46165e-06
-8.71738e-07
7.53496e-06
-1.81544e-06
7.95142e-06
-2.31959e-06
8.70393e-06
-3.17753e-06
-2.15585e-06
1.33858e-06
2.14145e-08
1.41626e-06
-1.21041e-07
1.51247e-06
-1.39352e-07
1.73275e-06
-2.49784e-07
2.21365e-06
-2.78721e-08
2.57329e-06
4.48832e-07
2.56561e-06
8.39364e-07
2.44442e-06
3.80992e-07
2.53478e-06
-2.54607e-07
2.97807e-06
-5.70596e-07
3.74703e-06
-7.70965e-08
4.00883e-06
5.65968e-07
3.71566e-06
9.35137e-07
3.46327e-06
-4.07031e-08
3.76771e-06
-1.30678e-06
4.49134e-06
-1.84709e-06
5.95978e-06
-8.39815e-07
8.61881e-06
5.11371e-07
1.12467e-05
4.20673e-06
1.06964e-05
5.37209e-06
8.88869e-06
5.48588e-06
6.82731e-06
4.66082e-06
5.24828e-06
2.76269e-06
4.51332e-06
-2.46576e-07
4.87982e-06
-2.81251e-06
6.262e-06
-4.23602e-06
7.49195e-06
-3.47673e-06
7.68527e-06
1.0747e-07
8.06013e-06
1.79067e-06
1.0268e-05
3.83813e-06
1.0345e-05
1.5235e-06
9.21287e-06
1.80169e-06
7.94444e-06
6.47184e-07
7.3436e-06
-1.27972e-06
7.6136e-06
-2.31001e-06
8.08104e-06
-1.75826e-06
8.56625e-06
-8.8466e-07
8.22268e-06
1.65968e-06
8.20367e-06
3.21016e-06
9.61201e-06
5.67972e-06
1.2361e-05
5.59809e-06
1.21481e-05
4.40356e-06
1.0631e-05
3.43944e-06
8.69535e-06
2.0979e-06
7.17145e-06
5.9538e-07
6.53811e-06
-9.33798e-07
6.72025e-06
-1.30145e-06
7.2706e-06
-1.47834e-06
7.73961e-06
-1.44255e-06
7.83127e-06
-1.07628e-06
7.56916e-06
-1.02609e-07
7.26694e-06
2.41101e-07
7.05698e-06
4.62593e-07
7.33157e-06
3.72177e-07
8.05996e-06
8.32692e-08
8.56667e-06
-6.94941e-07
8.4496e-06
-1.02687e-06
8.3235e-06
-7.54654e-07
8.24547e-06
-1.15337e-06
8.16497e-06
-3.46088e-07
7.84855e-06
1.30955e-06
7.47841e-06
1.69122e-06
7.10811e-06
1.73922e-06
7.19717e-06
2.69269e-06
8.26798e-06
4.03504e-06
8.38881e-06
4.01055e-06
7.64413e-06
4.13734e-06
6.38483e-06
3.83543e-06
5.15323e-06
3.11554e-06
4.34427e-06
2.10268e-06
4.04898e-06
6.79932e-07
4.13709e-06
-6.91088e-07
4.51885e-06
-2.71828e-06
5.64646e-06
-4.39038e-06
7.78236e-06
-4.90278e-06
9.32754e-06
-4.04211e-06
9.73222e-06
-1.66042e-06
9.91416e-06
-1.26974e-07
1.01375e-05
9.99006e-07
1.03477e-05
1.62507e-06
1.01161e-05
-2.07864e-07
9.78154e-06
1.13294e-07
9.15868e-06
-5.58906e-07
8.63048e-06
-2.21119e-06
8.91935e-06
-4.41463e-06
9.53168e-06
-3.45971e-06
9.92008e-06
-1.25972e-06
1.02111e-05
2.42529e-07
1.10717e-05
3.94368e-06
1.22719e-05
8.35441e-06
1.19352e-05
6.40126e-06
1.10476e-05
3.52166e-06
1.00567e-05
2.54943e-06
8.84368e-06
1.82924e-06
7.80964e-06
6.27507e-07
7.29807e-06
-8.37493e-07
7.4302e-06
-2.03351e-06
7.89024e-06
-2.69795e-06
8.79925e-06
-3.89016e-06
-2.54028e-06
1.07493e-06
-4.27401e-08
1.05235e-06
-1.09333e-07
1.03514e-06
-1.31564e-07
9.71744e-07
-1.78057e-07
9.4669e-07
1.75268e-08
1.09849e-06
2.81169e-07
1.43462e-06