/*--------------------------------*- C++ -*----------------------------------*\
| =========                 |                                                 |
| \\      /  F ield         | OpenFOAM: The Open Source CFD Toolbox           |
|  \\    /   O peration     | Version:  2.3.0                                 |
|   \\  /    A nd           | Web:      www.OpenFOAM.org                      |
|    \\/     M anipulation  |                                                 |
\*---------------------------------------------------------------------------*/
FoamFile
{
    version     2.0;
    format      ascii;
    class       volScalarField;
    location    "0.04";
    object      rho;
}
// * * * * * * * * * * * * * * * * * * * * * * * * * * * * * * * * * * * * * //

dimensions      [1 -3 0 0 0 0 0];

internalField   nonuniform List<scalar> 
5000
(
1.06456
1.06303
1.0628
1.06152
1.05938
1.05691
1.05414
1.05128
1.04872
1.04685
1.04593
1.04589
1.04623
1.04726
1.04787
1.04906
1.04987
1.05059
1.05095
1.05173
1.05201
1.05275
1.05344
1.05442
1.05375
1.05381
1.05313
1.05235
1.05197
1.05138
1.05127
1.05031
1.04993
1.04978
1.04976
1.04843
1.04884
1.04929
1.04982
1.05051
1.05083
1.05073
1.05066
1.05044
1.05004
1.0495
1.04893
1.04859
1.04893
1.04895
1.04894
1.04926
1.04953
1.04978
1.04994
1.0492
1.04914
1.04874
1.04825
1.04831
1.048
1.04821
1.04822
1.04874
1.04959
1.04872
1.0488
1.0487
1.04826
1.04736
1.04664
1.04567
1.04529
1.04565
1.04614
1.0462
1.04635
1.04678
1.04621
1.0464
1.04482
1.04453
1.04357
1.0429
1.04268
1.04226
1.04171
1.04097
1.03989
1.03537
1.02514
1.01268
0.997585
0.980097
0.959651
0.937271
0.913855
0.890159
0.86607
0.83305
1.06693
1.06344
1.0626
1.06134
1.05927
1.05682
1.0541
1.05135
1.04889
1.04704
1.04607
1.04597
1.04631
1.04736
1.04789
1.04907
1.04987
1.05061
1.05093
1.05172
1.05201
1.05274
1.05343
1.05423
1.05387
1.05369
1.05294
1.05219
1.05187
1.05136
1.0513
1.05035
1.05006
1.04987
1.04984
1.04848
1.04888
1.04928
1.0498
1.05047
1.05068
1.05036
1.04898
1.04634
1.04082
1.03107
1.01762
1.00483
1.00845
1.02134
1.03194
1.03916
1.04372
1.04635
1.0477
1.04677
1.04445
1.03931
1.03368
1.03317
1.03599
1.03936
1.04204
1.04436
1.0462
1.04481
1.04297
1.03868
1.03084
1.01761
0.995766
0.966606
0.941426
0.955585
0.984911
1.00726
1.02231
1.03075
1.03269
1.03095
1.0235
1.01297
0.999343
0.99396
0.99906
1.00775
1.01551
1.02269
1.02684
1.02239
1.00398
0.976137
0.94368
0.911076
0.878368
0.846172
0.81498
0.786196
0.758279
0.71712
1.06585
1.06278
1.06228
1.06102
1.05902
1.05663
1.05399
1.05133
1.04898
1.0472
1.04621
1.04617
1.04646
1.04735
1.04799
1.04904
1.04981
1.05051
1.05086
1.05166
1.05196
1.0527
1.05342
1.05412
1.0539
1.05325
1.05253
1.05187
1.05166
1.05121
1.05124
1.05024
1.04997
1.0497
1.0498
1.04841
1.04879
1.04922
1.04965
1.05036
1.05011
1.0487
1.04433
1.03495
1.01432
0.972982
0.903806
0.807657
0.745222
0.758165
0.832256
0.915888
0.967643
1.01212
1.03939
1.03941
1.03114
1.0049
0.955055
0.916071
0.917571
0.937976
0.97602
1.00966
1.02987
1.02924
1.02133
0.999574
0.964354
0.912876
0.832331
0.71796
0.597418
0.554522
0.578749
0.690254
0.845845
0.952345
0.990168
0.987319
0.966555
0.930091
0.882768
0.843865
0.842661
0.857103
0.897275
0.96238
1.00102
0.999233
0.976665
0.936967
0.892451
0.849603
0.810361
0.77404
0.74073
0.710932
0.682919
0.636246
1.06708
1.06193
1.06118
1.06022
1.05859
1.05645
1.05403
1.05151
1.04927
1.0475
1.04653
1.04642
1.04667
1.04749
1.04817
1.049
1.04978
1.05046
1.05088
1.05153
1.05187
1.05249
1.05296
1.05329
1.05349
1.0526
1.05198
1.05128
1.05129
1.0511
1.05118
1.05011
1.04968
1.04919
1.04946
1.04805
1.04859
1.04904
1.0494
1.0499
1.04877
1.04458
1.03239
1.00619
0.959547
0.891591
0.802082
0.697281
0.590888
0.520355
0.521608
0.571931
0.734175
0.942794
1.0216
1.02434
1.01099
0.972147
0.905923
0.822704
0.776361
0.7809
0.820912
0.909671
0.987356
0.990864
0.968648
0.910121
0.827626
0.737613
0.646777
0.554468
0.466074
0.392116
0.372182
0.39418
0.501381
0.756882
0.922491
0.93214
0.913166
0.86871
0.808826
0.742896
0.712032
0.717383
0.746464
0.834201
0.944406
0.963469
0.945446
0.903622
0.851556
0.801099
0.754503
0.711787
0.67332
0.640456
0.61137
0.562413
1.06383
1.06078
1.0605
1.05971
1.05804
1.05595
1.05376
1.05144
1.04937
1.04774
1.04685
1.04665
1.04693
1.04755
1.04834
1.04889
1.04969
1.05028
1.05073
1.05119
1.05125
1.05001
1.04538
1.0404
1.04562
1.0486
1.05001
1.05011
1.05056
1.05059
1.05027
1.04776
1.04307
1.03604
1.03814
1.04168
1.04503
1.04711
1.04812
1.04826
1.045
1.03386
1.00475
0.953429
0.883651
0.801871
0.715039
0.626901
0.540893
0.457731
0.405157
0.412058
0.491221
0.750198
0.970786
0.994977
0.980584
0.93734
0.868774
0.783355
0.699986
0.676889
0.694426
0.775071
0.897428
0.912488
0.876391
0.788666
0.687994
0.600882
0.527291
0.460469
0.397519
0.340936
0.301953
0.302091
0.332398
0.470077
0.76504
0.874691
0.867435
0.831389
0.770406
0.697542
0.630988
0.619044
0.63167
0.698961
0.850409
0.92064
0.909062
0.8688
0.811261
0.75276
0.699058
0.649486
0.604564
0.566675
0.534737
0.484603
1.06327
1.05983
1.0591
1.05864
1.05748
1.05573
1.05377
1.05164
1.04976
1.04812
1.04726
1.04711
1.04727
1.04782
1.04851
1.04891
1.04956
1.05005
1.05027
1.04952
1.04473
1.02593
0.966739
0.864502
0.913806
0.980756
1.0196
1.03735
1.04494
1.04761
1.04629
1.03834
1.0081
0.921622
0.908733
0.951781
0.991898
1.0185
1.03509
1.04139
1.03514
1.00836
0.951935
0.87354
0.784705
0.699486
0.621656
0.547719
0.478728
0.413609
0.351169
0.334931
0.362111
0.503212
0.819882
0.940733
0.932274
0.889764
0.815162
0.728397
0.641903
0.595253
0.602215
0.663422
0.79447
0.824133
0.786984
0.696673
0.597946
0.516839
0.450318
0.390685
0.335064
0.292006
0.265125
0.262909
0.271482
0.323772
0.508577
0.77545
0.811954
0.79185
0.737092
0.663424
0.584798
0.537766
0.539636
0.581978
0.732283
0.868262
0.867138
0.833013
0.773021
0.707736
0.645938
0.588274
0.536645
0.493939
0.459792
0.413413
1.06288
1.059
1.05841
1.05782
1.05652
1.05495
1.05338
1.05152
1.04981
1.04842
1.04765
1.04731
1.0475
1.04785
1.04844
1.04878
1.04918
1.04899
1.04807
1.04378
1.02326
0.95503
0.782597
0.512031
0.433206
0.527786
0.730537
0.87993
0.981515
1.03376
1.03308
1.01282
0.942907
0.796237
0.640998
0.639719
0.718355
0.859561
0.966885
1.01893
1.01406
0.976644
0.899997
0.800886
0.70124
0.61457
0.540461
0.472783
0.41059
0.357696
0.30728
0.278638
0.287206
0.345197
0.554568
0.831074
0.848934
0.813655
0.735814
0.647637
0.563261
0.510172
0.513016
0.565109
0.699714
0.744511
0.713478
0.631177
0.536097
0.454735
0.386158
0.326212
0.277688
0.248736
0.243407
0.245799
0.252529
0.272922
0.356866
0.597969
0.742931
0.737058
0.693651
0.620501
0.54204
0.477026
0.464434
0.487388
0.609784
0.797411
0.819868
0.794293
0.7352
0.664242
0.594595
0.530591
0.47497
0.429701
0.398534
0.36411
1.06117
1.05719
1.05715
1.05691
1.05591
1.05462
1.05324
1.05162
1.05006
1.04863
1.04775
1.04683
1.04571
1.04448
1.04534
1.04543
1.04579
1.04431
1.04003
1.02792
0.979401
0.857315
0.631768
0.400084
0.268774
0.259087
0.303496
0.468527
0.825219
0.992493
0.996682
0.96387
0.867256
0.709818
0.539679
0.420612
0.431488
0.53461
0.773939
0.963047
0.976553
0.938187
0.847638
0.733438
0.626249
0.536695
0.463952
0.400087
0.344291
0.301338
0.265678
0.237247
0.237084
0.257702
0.349821
0.622828
0.729694
0.709271
0.645394
0.565891
0.489832
0.432218
0.430909
0.473908
0.608646
0.67398
0.649893
0.575252
0.482123
0.398356
0.327888
0.272124
0.235405
0.2268
0.229839
0.244164
0.258782
0.272918
0.316556
0.477843
0.658886
0.667608
0.634976
0.563832
0.486485
0.42456
0.404649
0.416855
0.506503
0.707708
0.768756
0.750524
0.696347
0.621581
0.545211
0.477058
0.421632
0.381364
0.358987
0.341556
1.05257
1.05365
1.05491
1.05487
1.05378
1.05216
1.04955
1.0457
1.04188
1.03858
1.03439
1.02492
1.00429
0.977126
0.970396
0.985288
0.999208
1.00709
1.00381
0.984617
0.918202
0.759489
0.534508
0.337486
0.232624
0.190568
0.197362
0.266404
0.468393
0.854555
0.911988
0.872629
0.757102
0.597181
0.455597
0.342329
0.304167
0.33572
0.483756
0.807364
0.919785
0.890435
0.798644
0.67621
0.560284
0.464181
0.390007
0.33101
0.284269
0.251142
0.22843
0.210047
0.207141
0.214622
0.264144
0.46005
0.60636
0.598727
0.551889
0.488023
0.424921
0.37055
0.364014
0.39616
0.522246
0.608697
0.591003
0.523155
0.430696
0.347187
0.280207
0.233813
0.21244
0.211675
0.225818
0.264452
0.290021
0.301372
0.330084
0.43934
0.584759
0.59978
0.572206
0.503706
0.425124
0.373922
0.360862
0.36849
0.430245
0.615174
0.713019
0.70202
0.654158
0.578848
0.499798
0.430567
0.380752
0.350376
0.339348
0.337697
0.968461
0.931701
0.96058
0.980769
0.981165
0.967865
0.936174
0.887528
0.838276
0.810545
0.790268
0.757199
0.698202
0.591813
0.497356
0.526843
0.602959
0.71075
0.852177
0.865502
0.802084
0.642063
0.438716
0.290194
0.203588
0.176408
0.17701
0.188062
0.289303
0.571744
0.773494
0.743861
0.628088
0.468015
0.349738
0.276517
0.235515
0.243871
0.312448
0.543179
0.824589
0.821041
0.742563
0.615877
0.489905
0.386874
0.316639
0.26821
0.236223
0.219458
0.207141
0.198338
0.198275
0.203585
0.236553
0.383189
0.495459
0.491891
0.454585
0.406277
0.361955
0.318116
0.309271
0.333112
0.443529
0.546441
0.534872
0.473193
0.384076
0.303968
0.244065
0.209454
0.200749
0.203983
0.23494
0.297017
0.322429
0.330285
0.351676
0.430672
0.528776
0.536795
0.510039
0.443032
0.368022
0.330472
0.328665
0.335097
0.380425
0.535391
0.655308
0.650686
0.610125
0.537817
0.458786
0.391907
0.347671
0.330968
0.330249
0.336854
0.171395
0.198186
0.24183
0.272125
0.316688
0.38221
0.38564
0.339582
0.270259
0.271602
0.307758
0.379185
0.384686
0.326033
0.245187
0.236823
0.269238
0.350202
0.594289
0.693826
0.648796
0.511597
0.349186
0.237146
0.177894
0.178268
0.189797
0.188313
0.21073
0.393601
0.608664
0.589005
0.481116
0.347114
0.265529
0.224701
0.201252
0.201275
0.224547
0.350472
0.668698
0.731742
0.673083
0.547098
0.414948
0.314431
0.257694
0.228196
0.217394
0.214034
0.209786
0.203289
0.203201
0.21045
0.25328
0.355185
0.398257
0.389235
0.352975
0.320684
0.297403
0.270586
0.264354
0.283872
0.382483
0.489833
0.481864
0.4244
0.340437
0.267323
0.218555
0.196454
0.19451
0.202095
0.254509
0.334948
0.352228
0.356528
0.374901
0.438511
0.491775
0.489346
0.455814
0.388274
0.321575
0.299903
0.301196
0.308957
0.345434
0.473003
0.598109
0.598218
0.564344
0.497108
0.420818
0.35879
0.32281
0.314349
0.315271
0.330802
0.156671
0.160039
0.163169
0.163476
0.177988
0.213247
0.210596
0.183842
0.1758
0.194183
0.243647
0.269385
0.249751
0.195402
0.180797
0.18274
0.202586
0.265653
0.46437
0.548047
0.503367
0.385724
0.28239
0.185218
0.170034
0.191405
0.264618
0.254857
0.253047
0.359706
0.484098
0.451644
0.353384
0.260104
0.209757
0.209172
0.212397
0.206446
0.213205
0.270709
0.523108
0.642625
0.594193
0.471837
0.344561
0.257724
0.224088
0.226866
0.242625
0.246653
0.239221
0.224402
0.221701
0.237171
0.28869
0.317589
0.317117
0.297778
0.267584
0.249276
0.239665
0.229051
0.228477
0.245708
0.334994
0.437992
0.431175
0.377917
0.300349
0.237388
0.201215
0.189019
0.190217
0.202335
0.270239
0.368896
0.384723
0.38715
0.403032
0.448295
0.463036
0.450821
0.406161
0.337803
0.28722
0.27872
0.281475
0.289932
0.32029
0.424577
0.544679
0.548242
0.519525
0.457197
0.385719
0.327324
0.298366
0.295075
0.299249
0.326519
0.157009
0.156126
0.155747
0.15735
0.160949
0.162471
0.162389
0.160253
0.159078
0.164341
0.175666
0.178585
0.168781
0.162133
0.166786
0.195695
0.249239
0.333127
0.421353
0.428013
0.377749
0.311818
0.213284
0.16257
0.16384
0.20733
0.302387
0.345258
0.352467
0.40809
0.408886
0.345994
0.266849
0.2081
0.207124
0.244115
0.253315
0.233959
0.225273
0.257351
0.448194
0.561884
0.515804
0.396148
0.283252
0.225123
0.230632
0.26598
0.294787
0.289809
0.268917
0.246572
0.248973
0.271052
0.284056
0.276519
0.255081
0.237355
0.231103
0.22569
0.218097
0.213685
0.216549
0.230345
0.310832
0.395426
0.385799
0.333348
0.264485
0.215154
0.189251
0.184416
0.186856
0.202135
0.273938
0.390917
0.422541
0.429776
0.443293
0.452318
0.44443
0.412011
0.354181
0.292652
0.265733
0.267042
0.273213
0.282816
0.306475
0.38961
0.49793
0.503682
0.477223
0.418192
0.350271
0.296427
0.275608
0.276257
0.288132
0.326643
0.157291
0.157101
0.1567
0.156026
0.155713
0.155883
0.155874
0.155766
0.156092
0.159032
0.160874
0.160898
0.158552
0.156422
0.158794
0.178034
0.242921
0.302115
0.332133
0.326888
0.295434
0.226686
0.167355
0.15776
0.159125
0.214918
0.343953
0.403478
0.398842
0.380323
0.335449
0.276643
0.210443
0.193729
0.236551
0.293547
0.293592
0.268344
0.244266
0.270897
0.428377
0.496022
0.438381
0.32247
0.233835
0.221427
0.264571
0.332715
0.33755
0.319257
0.284485
0.273876
0.27794
0.277268
0.266192
0.236328
0.230529
0.244762
0.267836
0.264151
0.243874
0.221864
0.220685
0.234024
0.307528
0.360175
0.343946
0.292028
0.235244
0.198653
0.181766
0.179981
0.182674
0.197217
0.256416
0.393031
0.451354
0.456814
0.454346
0.445203
0.416062
0.364129
0.302531
0.259064
0.255496
0.263473
0.277088
0.288962
0.308695
0.372322
0.460942
0.465292
0.437712
0.37999
0.314358
0.267206
0.255345
0.260846
0.283667
0.328587
0.157231
0.15721
0.157135
0.156976
0.156735
0.156508
0.156313
0.156013
0.155967
0.156264
0.156656
0.15661
0.15585
0.154983
0.157415
0.160849
0.187926
0.23333
0.260716
0.250504
0.210002
0.168263
0.162937
0.158827
0.159016
0.179683
0.295626
0.34191
0.340996
0.32235
0.266077
0.205293
0.184889
0.196767
0.2769
0.322825
0.316659
0.287085
0.26498
0.296147
0.426295
0.440821
0.366163
0.263459
0.210313
0.226221
0.318664
0.372479
0.366346
0.338297
0.310068
0.296408
0.28384
0.261657
0.22872
0.224286
0.249592
0.304462
0.324737
0.316727
0.28778
0.24539
0.231088
0.246094
0.309039
0.328909
0.304898
0.255265
0.213629
0.185516
0.176024
0.174432
0.176143
0.188695
0.235492
0.362109
0.43693
0.445797
0.441381
0.41861
0.370193
0.310805
0.25827
0.241533
0.249528
0.274605
0.29755
0.308153
0.320735
0.370325
0.434367
0.433429
0.401372
0.34216
0.28053
0.242392
0.23802
0.250371
0.284683
0.329692
0.157206
0.157204
0.157199
0.157184
0.157176
0.157202
0.157308
0.157505
0.157872
0.158294
0.158791
0.159296
0.159515
0.159102
0.159077
0.159978
0.161631
0.170711
0.190198
0.177926
0.163283
0.167861
0.168789
0.168478
0.163496
0.161999
0.204341
0.261414
0.268305
0.238183
0.191986
0.171145
0.173666
0.209392
0.309353
0.346296
0.332295
0.296291
0.286646
0.331276
0.417085
0.391958
0.304222
0.224197
0.201622
0.241159
0.356803
0.386881
0.380166
0.35699
0.324772
0.294201
0.262402
0.224428
0.212694
0.234711
0.307445
0.348167
0.347483
0.337713
0.309131
0.263254
0.247755
0.264955
0.305151
0.301723
0.26782
0.227521
0.194599
0.176192
0.170219
0.167974
0.168493
0.178742
0.217783
0.320307
0.39951
0.411418
0.405236
0.373549
0.319031
0.264068
0.230896
0.230483
0.254179
0.294544
0.3176
0.326251
0.336776
0.376562
0.414524
0.406531
0.366787
0.306125
0.250327
0.224216
0.224521
0.244244
0.286282
0.327682
0.157195
0.15721
0.157262
0.157363
0.157581
0.157993
0.15866
0.159562
0.160744
0.162092
0.163509
0.165101
0.166341
0.166907
0.167565
0.166114
0.165849
0.166105
0.163296
0.1668
0.173021
0.181466
0.186834
0.188376
0.17911
0.165287
0.163326
0.174186
0.181638
0.170159
0.161761
0.158978
0.167387
0.220871
0.323214
0.369291
0.353501
0.317589
0.320432
0.376665
0.392464
0.336766
0.259065
0.200242
0.19661
0.251857
0.364467
0.377048
0.363844
0.338266
0.303096
0.266355
0.227503
0.203515
0.205843
0.260086
0.340044
0.357691
0.3537
0.338773
0.304459
0.268992
0.266072
0.283501
0.29267
0.27353
0.237319
0.205983
0.179029
0.168958
0.164424
0.161422
0.161572
0.169784
0.203282
0.278554
0.34886
0.361142
0.354017
0.321044
0.27184
0.229651
0.215739
0.223378
0.264421
0.311369
0.330327
0.338766
0.351441
0.384565
0.39765
0.381052
0.332465
0.272828
0.226627
0.21076
0.214181
0.238984
0.282671
0.321732
0.157235
0.157415
0.157764
0.158321
0.159202
0.160698
0.163023
0.165679
0.168526
0.171114
0.173572
0.17609
0.17817
0.179783
0.181993
0.181447
0.180179
0.179523
0.17782
0.185188
0.194789
0.206041
0.213355
0.217781
0.209992
0.188659
0.176249
0.170024
0.165988
0.164801
0.160583
0.156597
0.162083
0.204875
0.29756
0.379499
0.383577
0.371251
0.37662
0.384408
0.353086
0.286631
0.219277
0.18476
0.193223
0.246732
0.309131
0.32231
0.314278
0.292154
0.266419
0.232498
0.198229
0.192829
0.206181
0.267984
0.331768
0.350929
0.348506
0.334127
0.301604
0.281526
0.283167
0.285757
0.275427
0.244604
0.215084
0.184994
0.168562
0.16278
0.159017
0.156522
0.156577
0.162817
0.18704
0.24322
0.295415
0.306882
0.300043
0.271671
0.233851
0.208372
0.205322
0.219567
0.27189
0.321283
0.339478
0.349191
0.364502
0.384864
0.382442
0.353554
0.29892
0.243259
0.209148
0.201546
0.206418
0.231586
0.273148
0.31334
0.157811
0.159017
0.160582
0.162982
0.166516
0.17181
0.178276
0.184535
0.189935
0.193532
0.196532
0.199544
0.202422
0.205219
0.20886
0.208153
0.207273
0.207119
0.205906
0.214095
0.225178
0.239313
0.249765
0.260685
0.257082
0.235706
0.217383
0.2002
0.185998
0.178245
0.168895
0.159245
0.15836
0.177868
0.268965
0.353514
0.384411
0.383188
0.377651
0.35949
0.303673
0.243513
0.182969
0.172246
0.183604
0.224672
0.261524
0.274778
0.26514
0.239304
0.211655
0.189403
0.182938
0.186133
0.203291
0.239311
0.281599
0.321484
0.333783
0.3286
0.310319
0.295175
0.28679
0.276343
0.251934
0.223135
0.191479
0.17019
0.161157
0.157591
0.155269
0.153903
0.153898
0.157717
0.173376
0.214972
0.250388
0.258255
0.252918
0.23287
0.207934
0.197479
0.198415
0.216201
0.27404
0.325177
0.345841
0.357804
0.370795
0.377133
0.364413
0.323244
0.266957
0.220719
0.198029
0.195049
0.20036
0.221842
0.258591
0.302643
0.165579
0.174422
0.182082
0.188733
0.19711
0.209917
0.223882
0.234688
0.241434
0.244094
0.246887
0.250789
0.255603
0.260198
0.263853
0.259496
0.254734
0.251783
0.247724
0.254681
0.267342
0.286526
0.304631
0.326817
0.328077
0.309304
0.285248
0.254159
0.224938
0.207441
0.188721
0.171359
0.161816
0.162139
0.22195
0.302559
0.348419
0.3558
0.345695
0.310759
0.259419
0.193854
0.163331
0.161463
0.167056
0.183007
0.197892
0.203958
0.197981
0.18437
0.174031
0.170159
0.170796
0.176252
0.191294
0.21675
0.244477
0.284919
0.313445
0.316015
0.307772
0.293799
0.279513
0.257885
0.230132
0.199278
0.172348
0.160903
0.156382
0.154654
0.153597
0.152926
0.152652
0.154718
0.164317
0.186791
0.216335
0.222953
0.218759
0.205742
0.193031
0.190168
0.193044
0.209694
0.265168
0.32397
0.347986
0.359944
0.367629
0.364785
0.340297
0.29123
0.238656
0.204556
0.189739
0.189018
0.195029
0.210546
0.241472
0.28969
0.575109
0.397708
0.348748
0.339687
0.347584
0.36061
0.366951
0.368648
0.366985
0.363799
0.365883
0.371197
0.375511
0.37325
0.365843
0.349045
0.333785
0.324928
0.3154
0.322903
0.340518
0.369555
0.399894
0.430326
0.430487
0.405909
0.366973
0.316109
0.275728
0.249064
0.220279
0.199045
0.179586
0.16438
0.178643
0.252988
0.297142
0.303451
0.29336
0.257911
0.198798
0.162944
0.158999
0.159044
0.159689
0.161471
0.163142
0.163934
0.162956
0.160755
0.159768
0.159606
0.160408
0.163591
0.171577
0.188658
0.219354
0.248655
0.278976
0.293163
0.290443
0.277491
0.257856
0.235197
0.20455
0.175196
0.160746
0.155782
0.154085
0.153749
0.154392
0.154315
0.153025
0.153076
0.158168
0.170123
0.185206
0.192175
0.191934
0.187706
0.184275
0.184247
0.187834
0.202939
0.24934
0.310659
0.341419
0.353721
0.355946
0.345595
0.309701
0.258448
0.216583
0.191386
0.183279
0.183614
0.189119
0.200807
0.225248
0.273972
1.11624
0.988825
0.899392
0.829418
0.775732
0.734703
0.707414
0.689015
0.669841
0.653652
0.642874
0.628013
0.606564
0.577478
0.545122
0.508947
0.483642
0.470794
0.456852
0.46871
0.492172
0.525361
0.55545
0.567426
0.550002
0.505022
0.447711
0.382166
0.335562
0.302966
0.271845
0.254337
0.227381
0.191174
0.165769
0.178948
0.221401
0.237043
0.227002
0.189446
0.163039
0.166565
0.169638
0.172041
0.170398
0.166592
0.164768
0.16347
0.16226
0.161125
0.160133
0.159082
0.157978
0.157614
0.159401
0.16777
0.188519
0.220708
0.244179
0.256413
0.258036
0.248861
0.233465
0.205419
0.175434
0.160581
0.155797
0.154141
0.154732
0.156636
0.158337
0.157837
0.155247
0.152612
0.154539
0.160881
0.168995
0.173842
0.176609
0.177707
0.177528
0.177713
0.180742
0.19479
0.229971
0.287601
0.323787
0.335937
0.335048
0.315984
0.273611
0.229498
0.198772
0.180557
0.176906
0.177695
0.182937
0.191235
0.210787
0.255077
1.17715
1.16255
1.14396
1.11913
1.09286
1.06561
1.04027
1.01666
0.99512
0.977662
0.960679
0.9382
0.910422
0.875028
0.835406
0.79814
0.775638
0.760835
0.741483
0.740208
0.741303
0.741345
0.728195
0.693988
0.63891
0.57502
0.50825
0.439576
0.396522
0.368207
0.345861
0.338951
0.311421
0.263185
0.20432
0.172468
0.164369
0.169135
0.16555
0.16853
0.187152
0.201324
0.210776
0.21556
0.209455
0.197997
0.189989
0.184024
0.181119
0.179395
0.175302
0.169763
0.163726
0.159397
0.157681
0.158231
0.165802
0.181026
0.200739
0.218929
0.225346
0.214736
0.194694
0.172567
0.159493
0.156902
0.156051
0.15756
0.16074
0.164267
0.165752
0.163965
0.158961
0.154209
0.152919
0.155679
0.160402
0.164743
0.168437
0.170476
0.169639
0.168393
0.170521
0.183214
0.21239
0.254927
0.293803
0.306572
0.302506
0.277115
0.238535
0.207089
0.182034
0.171313
0.169963
0.170934
0.175789
0.181839
0.20006
0.233192
1.18037
1.17927
1.17726
1.17375
1.16898
1.16286
1.15662
1.15004
1.14298
1.13562
1.12686
1.11521
1.10093
1.08348
1.06394
1.04624
1.03217
1.01581
0.992351
0.964925
0.926075
0.88043
0.819388
0.746897
0.673827
0.607545
0.545104
0.485551
0.4532
0.434733
0.424953
0.426475
0.409121
0.374289
0.320571
0.26891
0.224274
0.205359
0.213469
0.251522
0.268455
0.277052
0.28448
0.282834
0.268717
0.251272
0.239191
0.231548
0.226922
0.220508
0.207521
0.194423
0.182644
0.172928
0.165475
0.16033
0.158883
0.160329
0.165973
0.17416
0.178309
0.172511
0.163837
0.159449
0.160427
0.160996
0.164662
0.168618
0.173801
0.176459
0.1762
0.172256
0.165532
0.158181
0.153685
0.153334
0.155593
0.158699
0.161849
0.162266
0.160334
0.158985
0.160322
0.168914
0.191528
0.225582
0.254063
0.265873
0.260331
0.238391
0.211623
0.185042
0.168839
0.163375
0.16307
0.164088
0.167926
0.172116
0.190521
0.213183
1.18026
1.18018
1.17999
1.1796
1.17897
1.17805
1.17703
1.1759
1.1746
1.173
1.17072
1.16745
1.16304
1.15705
1.14976
1.14238
1.13375
1.11907
1.09331
1.05401
0.992996
0.915268
0.829167
0.745638
0.673884
0.614042
0.564912
0.525489
0.503211
0.489928
0.479821
0.472661
0.460608
0.443963
0.420385
0.399247
0.37606
0.355811
0.349368
0.347019
0.338639
0.341517
0.341037
0.332956
0.316401
0.299814
0.287232
0.277261
0.26799
0.255053
0.236926
0.221794
0.208413
0.197987
0.18877
0.17817
0.170778
0.166516
0.163388
0.162242
0.161884
0.162175
0.163509
0.168974
0.174566
0.1783
0.184027
0.188483
0.192564
0.192507
0.190029
0.18434
0.176172
0.166553
0.158282
0.154016
0.15365
0.154985
0.156245
0.156725
0.156713
0.156084
0.15585
0.158363
0.168558
0.195022
0.222179
0.229169
0.224869
0.207627
0.183691
0.167762
0.159248
0.156809
0.156914
0.157682
0.160146
0.162946
0.180823
0.196331
1.18013
1.18012
1.18011
1.18008
1.18002
1.17994
1.17986
1.17977
1.17965
1.17946
1.17906
1.17837
1.17733
1.17569
1.17326
1.16965
1.16324
1.15086
1.11775
1.05572
0.963016
0.852036
0.748948
0.673256
0.626899
0.593595
0.566983
0.5433
0.525703
0.512393
0.500589
0.488638
0.473325
0.456665
0.438526
0.420573
0.403813
0.388669
0.376022
0.368419
0.366459
0.368387
0.365863
0.354759
0.336944
0.320011
0.306461
0.295269
0.284792
0.271733
0.256652
0.246929
0.237569
0.231135
0.225507
0.218008
0.210698
0.204034
0.196454
0.190397
0.187478
0.189421
0.192588
0.200527
0.206061
0.208764
0.213735
0.21582
0.216449
0.213436
0.209075
0.202589
0.193274
0.181477
0.169949
0.161175
0.157456
0.157272
0.158729
0.161615
0.164479
0.163521
0.160132
0.157213
0.157886
0.166209
0.181916
0.189692
0.185696
0.174226
0.16373
0.157569
0.154751
0.153916
0.153942
0.154417
0.155327
0.156457
0.169555
0.176413
1.18013
1.18014
1.18015
1.18017
1.18021
1.18025
1.18031
1.18038
1.18045
1.18051
1.1805
1.1804
1.18016
1.17965
1.17861
1.17655
1.17027
1.15154
1.10582
1.01902
0.894027
0.759211
0.655644
0.603433
0.583372
0.569913
0.556311
0.540105
0.526045
0.514604
0.503935
0.491036
0.47244
0.450966
0.430437
0.41083
0.394625
0.381556
0.372257
0.369162
0.376579
0.37604
0.36738
0.349411
0.331153
0.317488
0.308076
0.301935
0.296524
0.287536
0.280275
0.280358
0.27654
0.277199
0.280098
0.281497
0.280149
0.276369
0.269197
0.261645
0.25551
0.252586
0.250029
0.253383
0.255041
0.254254
0.254638
0.252146
0.248738
0.243403
0.239234
0.232244
0.221338
0.207356
0.193389
0.181657
0.176274
0.17682
0.181767
0.189086
0.191642
0.187046
0.178994
0.169889
0.16184
0.158539
0.159465
0.16139
0.160665
0.158436
0.156787
0.156049
0.157261
0.15675
0.156079
0.157477
0.15772
0.158005
0.159131
0.160184
1.18029
1.1803
1.18032
1.18036
1.18042
1.18049
1.18058
1.18067
1.18076
1.18084
1.18088
1.18088
1.1808
1.18061
1.17997
1.17787
1.17125
1.15096
1.0959
0.987739
0.837551
0.690224
0.600341
0.573584
0.566519
0.558645
0.545724
0.532761
0.523895
0.520905
0.515899
0.501708
0.473155
0.440764
0.412008
0.386929
0.369125
0.36138
0.359986
0.369746
0.376783
0.371007
0.354586
0.33462
0.322804
0.31875
0.318464
0.321752
0.323644
0.323081
0.329116
0.338095
0.339542
0.349238
0.36423
0.377413
0.38315
0.383733
0.377756
0.367888
0.35549
0.343983
0.33372
0.329147
0.322021
0.313074
0.306382
0.298176
0.292091
0.287534
0.285444
0.279235
0.268146
0.253173
0.237265
0.2255
0.22356
0.229166
0.238336
0.239652
0.232185
0.221369
0.211971
0.201346
0.187782
0.172987
0.1654
0.162694
0.162025
0.162327
0.164562
0.169502
0.174188
0.172046
0.172212
0.178545
0.180121
0.180797
0.162541
0.164382
1.18051
1.18053
1.18056
1.18061
1.18068
1.18075
1.18083
1.18091
1.18098
1.18103
1.18105
1.18104
1.18095
1.18069
1.1799
1.17742
1.16958
1.14562
1.08079
0.956601
0.790913
0.644202
0.580786
0.573282
0.56967
0.557904
0.542039
0.539171
0.544729
0.550682
0.543949
0.515204
0.470697
0.425121
0.389471
0.36068
0.345406
0.343562
0.355175
0.371911
0.370426
0.352007
0.336054
0.330126
0.328514
0.33491
0.34641
0.358695
0.368687
0.379063
0.395236
0.408976
0.41762
0.43637
0.463047
0.492253
0.51666
0.529841
0.523048
0.506204
0.481303
0.455596
0.432922
0.414454
0.395637
0.377984
0.364369
0.353571
0.3511
0.352173
0.354187
0.350357
0.340556
0.326481
0.312036
0.305911
0.308029
0.313702
0.30729
0.290989
0.270084
0.262749
0.260872
0.254784
0.24193
0.221765
0.204958
0.197247
0.196028
0.199227
0.206077
0.215301
0.221224
0.216567
0.223594
0.24612
0.252861
0.255936
0.213772
0.214959
1.18076
1.18078
1.18081
1.18086
1.18091
1.18096
1.18103
1.18108
1.18113
1.18114
1.18113
1.18109
1.18099
1.18075
1.18008
1.17803
1.17151
1.15116
1.09224
0.966769
0.787701
0.636025
0.589861
0.59062
0.585569
0.564917
0.554847
0.566587
0.588442
0.592258
0.571317
0.518777
0.454053
0.399317
0.36197
0.336952
0.330343
0.34067
0.360718
0.368569
0.350694
0.340634
0.339596
0.342423
0.352521
0.370519
0.388036
0.404314
0.417775
0.430943
0.445697
0.457883
0.468726
0.488334
0.515199
0.55332
0.600049
0.635081
0.632231
0.608329
0.566169
0.524022
0.49266
0.46884
0.447559
0.42843
0.416881
0.416785
0.424428
0.432332
0.43596
0.431797
0.424263
0.416509
0.410283
0.408605
0.402344
0.379577
0.347079
0.321188
0.309537
0.325503
0.351682
0.364173
0.362677
0.34443
0.324684
0.31865
0.321252
0.325625
0.333524
0.34377
0.348606
0.349492
0.373784
0.422267
0.430264
0.424374
0.368983
0.313729
1.18095
1.18096
1.18098
1.18101
1.18105
1.18109
1.18113
1.18116
1.18117
1.18117
1.18114
1.18108
1.18097
1.18075
1.18016
1.17835
1.17257
1.15436
1.10063
0.97769
0.794108
0.643866
0.614505
0.62066
0.610885
0.583155
0.584095
0.609659
0.632419
0.627831
0.588909
0.510857
0.428337
0.368694
0.334372
0.321207
0.328605
0.348424
0.367307
0.357709
0.349699
0.350404
0.361836
0.378541
0.395777
0.41538
0.431124
0.444098
0.453868
0.461917
0.470624
0.47874
0.48667
0.498515
0.51706
0.549473
0.606824
0.668829
0.674959
0.647674
0.589346
0.534597
0.50369
0.486268
0.472361
0.462667
0.46677
0.479477
0.492491
0.493511
0.487052
0.475343
0.468544
0.468578
0.469876
0.465387
0.447825
0.403795
0.359075
0.358499
0.406163
0.48793
0.577282
0.634398
0.663837
0.657051
0.642784
0.644282
0.644088
0.634652
0.628699
0.6241
0.614003
0.616523
0.632903
0.640705
0.624004
0.587323
0.517058
0.385991
1.18102
1.18103
1.18104
1.18106
1.18108
1.18111
1.18113
1.18114
1.18114
1.18112
1.18109
1.18104
1.18095
1.18079
1.18038
1.17914
1.17511
1.162
1.12184
1.01483
0.830432
0.67044
0.64405
0.653119
0.643113
0.615334
0.619552
0.648348
0.669286
0.65822
0.600951
0.49644
0.399844
0.340593
0.317409
0.320213
0.338374
0.365203
0.371351
0.364349
0.367296
0.390707
0.414389
0.436319
0.454422
0.47234
0.484816
0.493848
0.499019
0.501354
0.504436
0.508093
0.508084
0.509008
0.512344
0.5272
0.573435
0.659757
0.694996
0.666955
0.592245
0.527079
0.500142
0.490222
0.488749
0.493176
0.510119
0.521459
0.520953
0.516117
0.501891
0.483526
0.478647
0.483619
0.489779
0.481673
0.449757
0.402804
0.420001
0.517348
0.684056
0.826529
0.906779
0.948233
0.96805
0.963456
0.9513
0.937734
0.918536
0.892386
0.865521
0.839127
0.811716
0.787798
0.766231
0.745116
0.713803
0.662869
0.580311
0.42193
1.18099
1.18099
1.181
1.18101
1.18102
1.18104
1.18104
1.18105
1.18105
1.18103
1.18101
1.18097
1.18091
1.1808
1.18053
1.17971
1.17702
1.16815
1.14003
1.05916
0.891661
0.718749
0.675202
0.684905
0.683746
0.662893
0.663289
0.686782
0.709172
0.690836
0.609319
0.474622
0.370116
0.322715
0.318078
0.331665
0.365984
0.38857
0.390658
0.398715
0.443572
0.493555
0.527652
0.555343
0.573825
0.591905
0.601477
0.606375
0.607491
0.607994
0.610717
0.615213
0.609892
0.599052
0.574466
0.561785
0.577356
0.647685
0.721327
0.699732
0.608846
0.525109
0.496602
0.49403
0.498246
0.513626
0.533013
0.534329
0.527043
0.501653
0.447371
0.419811
0.426451
0.455837
0.485856
0.477854
0.4523
0.494838
0.65919
0.844035
0.989612
1.06633
1.09476
1.09927
1.09563
1.08418
1.06286
1.0369
1.00831
0.972393
0.936984
0.902476
0.865397
0.82836
0.79156
0.753263
0.712548
0.670927
0.611967
0.47794
1.18091
1.18091
1.18091
1.18091
1.18092
1.18092
1.18093
1.18093
1.18093
1.18093
1.18092
1.18091
1.18088
1.18083
1.18069
1.18029
1.17893
1.17433
1.15908
1.11219
0.989024
0.814311
0.724402
0.723934
0.734715
0.728783
0.728432
0.747189
0.764626
0.731388
0.614299
0.449869
0.349178
0.323411
0.332705
0.375842
0.429113
0.456806
0.48331
0.568707
0.6611
0.721919
0.763416
0.798663
0.821298
0.835093
0.836614
0.828267
0.814249
0.807568
0.806153