/*--------------------------------*- C++ -*----------------------------------*\
| =========                 |                                                 |
| \\      /  F ield         | OpenFOAM: The Open Source CFD Toolbox           |
|  \\    /   O peration     | Version:  2.3.0                                 |
|   \\  /    A nd           | Web:      www.OpenFOAM.org                      |
|    \\/     M anipulation  |                                                 |
\*---------------------------------------------------------------------------*/
FoamFile
{
    version     2.0;
    format      ascii;
    class       volScalarField;
    location    "0.04";
    object      T;
}
// * * * * * * * * * * * * * * * * * * * * * * * * * * * * * * * * * * * * * //

dimensions      [0 0 0 1 0 0 0];

internalField   nonuniform List<scalar> 
5000
(
294
294
294
294
294
294
294
294
294
294
294
294
294
294
294
294
294
294
294
294
294
294
294
294
294
294
294
294
294
294
294
294
294
294
294
294
294
294
294
294.002
294.005
294.014
294.035
294.076
294.147
294.244
294.345
294.39
294.327
294.226
294.149
294.092
294.055
294.037
294.035
294.048
294.08
294.124
294.159
294.159
294.135
294.108
294.083
294.066
294.064
294.083
294.13
294.215
294.347
294.541
294.809
295.084
295.159
294.946
294.701
294.536
294.463
294.485
294.587
294.745
294.952
295.2
295.438
295.573
295.581
295.563
295.625
295.815
296.229
297.668
300.421
303.976
308.263
313.614
320.083
327.565
335.762
344.367
353.846
367.486
294
294
294
294
294
294
294
294
294
294
294
294
294
294
294
294
294
294
294
294
294
294
294
294
294
294
294
294
294
294
294
294
294
294
294
294
294
294.001
294.005
294.016
294.055
294.178
294.485
295.166
296.594
299.167
302.782
306.341
305.303
301.647
298.687
296.762
295.578
294.929
294.641
294.732
295.319
296.618
298.076
298.175
297.324
296.441
295.704
295.21
294.965
295.111
295.687
296.867
298.977
302.622
308.778
317.822
326.043
321.183
311.808
305.084
300.886
298.734
298.163
298.851
300.656
303.745
307.566
309.09
307.548
304.956
302.705
300.723
299.719
301.179
306.277
314.782
325.303
336.715
349.02
362.125
375.728
389.249
403.282
426.083
294
294
294
294
294
294
294
294
294
294
294
294
294
294
294
294
294
294
294
294
294
294.001
294.003
294.004
294.002
294.001
294
294
294
294
294
294.001
294.003
294.005
294.004
294.003
294.003
294.006
294.018
294.053
294.18
294.592
295.681
298.163
303.766
315.996
339.47
379.104
410.337
403.321
367.915
334.881
317.448
304.19
296.838
296.661
298.813
306.022
321.288
334.574
333.966
326.854
314.461
304.606
299.314
299.243
301.489
307.613
318.464
335.959
367.92
425.583
510.134
548.789
526.008
441.767
361.567
322.081
310.086
311.199
317.436
329.76
347.038
362.714
363.127
356.96
341.126
318.577
306.876
307.648
314.454
327.549
343.566
360.634
377.821
395.263
412.754
429.765
447.125
479.426
294
294
294
294
294
294
294
294
294
294
294
294
294
294
294
294
294
294
294
294.001
294.007
294.032
294.096
294.139
294.077
294.033
294.013
294.005
294.002
294.003
294.009
294.033
294.094
294.166
294.137
294.077
294.046
294.038
294.069
294.172
294.521
295.676
298.853
306.068
320.319
344.109
381.719
438.128
515.784
584.596
583.208
532.457
416.225
325.617
301.63
300.744
304.33
315.898
338.289
371.824
393.587
391.297
372.482
336.882
311.395
310.01
317.042
336.919
369.921
414.325
471.75
549.027
651.79
772.938
814.366
768.826
605.735
403.542
332.183
329.081
335.505
352.599
378.202
411.164
428.622
425.279
408.753
366.413
324.598
318.664
324.501
339.366
359.771
382.083
405.307
429.32
453.515
476.451
498.709
541.367
294
294
294
294
294
294
294
294
294
294
294
294
294
294
294
294
294
294.001
294.006
294.032
294.153
294.655
296.064
297.452
296.086
294.911
294.374
294.148
294.065
294.068
294.191
294.618
295.817
297.595
297.07
295.773
294.965
294.522
294.378
294.599
295.457
298.517
306.447
322.315
347.164
381.878
427.425
486.594
562.713
663.402
748.528
736.16
618.79
407.576
316.561
309.007
313.232
327.272
352.456
390.148
435.8
450.535
439.177
394.26
341.77
335.836
349.621
387.84
443.764
507.167
576.962
659.621
762.877
887.85
1001.82
1000.98
910.679
645.853
399.27
350.253
352.86
368.176
396.755
437.537
482.888
491.884
481.93
436.072
359.725
333.113
337.169
352.72
377.327
406.212
437.005
469.939
504.321
537.439
569.056
627.147
294
294
294
294
294
294
294
294
294
294
294
294
294.001
294.001
294.001
294.002
294.006
294.023
294.101
294.449
295.815
301.033
318.801
355.598
336.711
313.864
302.362
297.356
295.406
294.801
295.162
297.085
305.368
332.872
337.484
322.272
309.649
302.186
297.798
296.399
298.06
305.5
322.767
351.133
390.136
436.874
490.69
555.794
634.802
733.288
862.42
904.358
837.206
604.351
373.51
326.314
328.943
344.414
375.239
419.114
474.711
511.383
505.419
459.592
385.264
371.14
388.643
438.253
509.594
588.42
674.237
776.164
904.138
1036.46
1140.06
1148.86
1112.82
934.917
597.345
394.312
376.536
386.251
414.404
459.735
520.439
565.037
562.807
522.348
416.69
352.847
353.153
367.619
395.676
431.689
472.451
518.073
567.165
615.573
660.593
733.674
294
294
294
294
294
294
294
294
294.001
294.001
294.003
294.008
294.022
294.037
294.037
294.044
294.089
294.236
294.628
295.941
301.502
322.222
392.106
595.692
704.425
577.787
418.369
348.193
313.127
298.428
298.557
304.003
325.637
384.295
475.734
476.416
424.801
356.12
317.601
302.436
303.814
314.933
340.916
382.385
435.819
496.334
563.205
642.713
738.772
847.049
985.084
1087.26
1055.42
879.387
549.032
368.595
360.495
376.052
414.985
470.606
539.877
595.379
592
538.24
436.594
410.12
428.066
483.089
567.483
667.684
785.118
928.709
1091.42
1216.71
1241.53
1228.14
1195.07
1106.55
848.07
509.503
410.945
414.512
440.004
491.074
560.888
635.987
652.773
622.265
499.102
383.696
373.13
385.239
415.708
459.584
512.623
573.566
639.849
706.242
760.852
832.049
294.005
294.004
294.003
294.002
294.004
294.009
294.019
294.034
294.051
294.071
294.118
294.263
294.615
295.018
294.987
294.859
294.92
295.409
296.734
300.119
314.171
358.095
484.131
760.719
1141.13
1194.91
1014.88
650.064
370.789
310.027
308.526
318.745
353.445
430.331
563.561
720.974
702.958
568.717
395.006
319.166
314.882
327.418
361.565
416.965
487.252
567.211
654.85
758.104
880.066
1005.21
1140.18
1278.51
1280.22
1179.19
867.272
489.966
418.229
430.538
472.314
537.472
619.743
701.204
703.272
640.441
500.919
452.446
469.386
529.28
630.211
761.107
923.66
1113.95
1288.47
1334.6
1314.79
1236.47
1166.63
1106.32
954.472
635.573
462.725
457.004
480.106
539.61
624.132
713.432
747.958
726.029
599.272
431.591
397.494
407.346
438.573
490.669
558.324
637.093
719.608
794.899
843.822
886.32
294.687
294.571
294.308
294.204
294.247
294.427
294.837
295.533
296.232
296.793
297.747
300.193
305.981
314.154
316.405
311.711
307.635
305.459
306.634
312.439
334.492
403.314
570.736
901.676
1323.15
1630.65
1573.18
1158.29
649.577
358.837
336.18
351.288
403.953
510.261
666.307
884.525
997.529
904.297
628.351
379.308
333.756
344.531
383.312
451.727
543.625
654.626
777.694
915.475
1066.06
1206.77
1327.34
1445.2
1465.53
1412.84
1147.33
660.539
502.036
508.848
550.991
622.07
713.025
816.822
831.448
764.601
582.469
500.275
515.433
581.251
704.374
872.339
1080.96
1298.69
1428.96
1431.33
1338.29
1142.43
1041.62
1002.51
915.623
690.417
520.509
507.861
531.922
603.201
712.942
809.183
837.873
820.485
703.892
495.534
428.092
435.113
466.478
526.305
608.428
704.879
796.204
864.43
892.056
896.32
320.013
331.025
321.238
314.74
314.436
318.432
328.651
346.044
365.715
377.627
386.948
403.405
437.157
514.832
612.507
578.019
505.319
429.456
359.665
354.253
381.926
475.914
693.606
1056.35
1526.55
1756.41
1746.3
1638.83
1061.31
533.679
394.973
410.995
485.712
649.216
867.174
1096.42
1289.89
1246.59
973.879
560.485
371.628
373.032
411.757
495.308
620.722
784.122
957.238
1130.03
1282.52
1379.85
1462.89
1530.31
1530.54
1489.12
1278.75
791.226
612.895
617.782
667.426
745.785
836.188
950.662
977.856
908.172
684.352
556.395
568.708
641.814
789.126
995.898
1242.96
1453.15
1514.83
1486.39
1286.87
1017.63
937.184
915.079
859.942
704.064
574.809
566.533
595.887
684.652
822.632
914.463
919.112
901.335
795.106
568.118
465.28
468.988
499.629
565.866
662.064
773.737
871.19
914.57
916.385
898.544
1885.81
1604.3
1299.51
1147.17
979.482
805.646
798.081
910.273
1150.3
1141.5
998.49
803.642
794.021
944.454
1268.34
1311.01
1144.23
867.503
513.056
440.195
470.701
595.375
872.806
1309.35
1756.83
1736.83
1631.02
1630.29
1447
771.616
500.255
517.423
632.003
874.892
1144.63
1348.55
1505.29
1503.33
1351
865.877
457.14
417.612
453.661
556.533
731.351
964.155
1176.08
1326.08
1391.64
1414.72
1445.24
1492.88
1493.32
1440.55
1194.79
852.62
760.857
778.952
858.249
944.23
1017.71
1118.16
1144.27
1065.47
792.421
619.926
630.463
714.526
889.402
1133.07
1392.81
1553.58
1566.94
1501.54
1187.74
902.737
858.582
848.327
807.19
691.635
617.503
620.775
665.81
780.224
940.412
1007.01
1002.43
977.036
874.742
641.955
509.119
509.483
539.478
611.624
720.929
844.493
937.701
962.647
959.662
914.793
2109.77
2057.97
2007.89
1985.85
1789.11
1474.55
1493.76
1724.4
1804.07
1617.86
1271.86
1148.66
1245.33
1608.72
1733.45
1689.48
1508.87
1140.98
654.175
555.337
604.592
788.378
1092.75
1702.36
1847.12
1614.27
1162.73
1208.08
1207.01
843.141
627.28
672.644
860.412
1172.86
1443.64
1445.54
1427.04
1465.54
1418.49
1118.6
582.347
474.602
512.934
644.129
879.933
1176.23
1349.66
1332.91
1249.06
1228.72
1266.8
1350.99
1367.88
1278.61
1047.43
952.9
954.846
1017.54
1131.45
1213.97
1262.81
1320.9
1323.74
1230.43
903.544
692.285
703.477
801.708
1007.88
1279.1
1519.71
1620.24
1606.86
1500.45
1118.37
820.299
786.662
781.847
751.324
676.719
655.311
673.056
746.222
895.784
1052.2
1083.01
1072.21
1040.64
942.708
713.984
558.32
555.153
585.409
664.267
785.995
924.951
1014.15
1025.23
1010.69
926.685
2106.1
2115.8
2117.5
2092.28
2030.84
1997.32
2000.3
2030.05
2032.85
1945.41
1804.74
1773.34
1888.28
1972.18
1898.67
1584.49
1218.76
908.088
719.717
709.29
804.618
986.256
1469.13
1969.83
1941.6
1491.89
1000.86
877.997
859.732
743.332
741.537
878.398
1149.96
1464.95
1463.13
1241.15
1195.34
1293.54
1342.22
1174.83
678.124
541.615
589.693
765.886
1071.2
1343.87
1311.65
1139.51
1027.29
1044.22
1124.58
1227.47
1216.15
1116.02
1064
1094.66
1186.31
1273.09
1306.66
1338.16
1385.31
1414.35
1395.62
1311.59
973.162
766.041
785.425
908.019
1145.62
1418.15
1623.94
1667.91
1642.26
1504.94
1103.36
774.569
716.794
704.992
683.833
670.747
682.367
735.644
854.917
1033.42
1136.7
1129.97
1104.44
1066.54
984.797
777.335
610.125
603.613
636.618
725.345
864.817
1021
1097.63
1094.77
1049.42
926.287
2102.84
2104.59
2108.71
2115.58
2116.62
2111.88
2110.46
2109.69
2101.25
2059.13
2030.67
2028.01
2057.59
2076.3
2024.78
1770.95
1272.48
1009.65
915.224
932.38
1041.92
1378.38
1909.96
2065
2024.42
1445.35
880.26
750.671
759.415
797.073
906.039
1112.95
1467.57
1571.91
1283.35
1030.11
1028.84
1125.3
1236.86
1115.85
708.785
612.615
692.388
940.691
1298.53
1366.13
1145.29
910.402
896.735
947.509
1062.69
1104.22
1087.43
1090.12
1136.93
1280.43
1310.66
1235.49
1129.57
1145.28
1240.73
1362.64
1369.33
1290.87
983.361
840.328
880.115
1036.61
1292.7
1545.9
1699.81
1718.38
1690.33
1552.11
1180.28
770.512
671.594
663.829
667.43
681.266
728.324
831.684
1000.37
1166.7
1181.96
1145.09
1089.15
1044.07
977.727
812.951
658.427
652.704
693.236
797.658
962.985
1132.55
1184.67
1159.23
1065.78
920.801
2102.6
2102.73
2103.3
2104.63
2106.74
2108.65
2110.17
2112.7
2111.96
2106.69
2100.44
2099.84
2107.85
2114.38
2075.36
1999.69
1675.87
1334.74
1184.27
1238.14
1493.2
1899.7
2015.78
2073.67
2056.18
1759.15
1041.64
887.964
889.619
947.273
1160.32
1518.97
1678.34
1555.08
1093.56
935.796
953.4
1051.08
1139.58
1020.9
711.924
688.324
827.963
1154.73
1443.38
1338.37
950.737
813.337
826.701
894.417
975.329
1019.95
1065.08
1157.64
1324.93
1348.01
1212.7
994.164
931.203
954.377
1050.3
1231.43
1307.5
1227.57
978.385
919.446
992.434
1188.38
1433.85
1666.7
1765.91
1785.93
1767.53
1635.21
1288.98
835.843
693.447
680.046
686.782
723.939
817.959
973.805
1171.73
1251.1
1210.07
1099.07
1014.62
979.501
941.282
817.201
698.081
699.95
755.304
885.001
1078.96
1248.91
1271.31
1207.6
1061.98
917.689
2102.6
2102.45
2102.26
2102
2101.6
2100.7
2098.88
2095.89
2090.84
2085.16
2078.76
2072.35
2069.46
2073.55
2071.83
2050.22
2000.41
1864.39
1655.98
1782.11
1977.51
1966.02
1966.41
1970.34
2020.63
1988.59
1536.28
1186.68
1152.31
1307.72
1638.54
1846.9
1802.72
1463.86
977.011
872.754
908.685
1018.58
1053.51
913.023
727.168
773.363
997.601
1364.07
1508.7
1255.87
848.914
783.25
796.857
848.014
931.334
1028.09
1156.08
1355.44
1424.46
1289.19
984.602
868.987
870.302
894.923
977.098
1146.85
1219.14
1140.11
990.658
1002.03
1131.06
1341.65
1588.05
1767.38
1838.73
1870.41
1864.47
1741.03
1401.27
944.619
757.885
736.205
747.404
810.639
948.484
1146.83
1310.77
1311.32
1188.01
1025.14
950.827
925.468
896.815
803.769
731.058
745.706
825.894
988.649
1209.75
1351.26
1348.5
1237.97
1056.05
923.256
2102.46
2101.92
2101.01
2099.45
2096.39
2090.95
2082.54
2071.4
2057.12
2041
2024.48
2006.01
1991.85
1985.46
1978.09
1993.57
1992.36
1979.67
1993.59
1970.5
1917.74
1837.16
1786.93
1772.94
1859.99
1993.6
1978.77
1825.99
1742.58
1872.43
1991.33
2021.25
1888.54
1390.55
935.379
818.913
854.725
950.906
943.037
803.714
772.183
899.604
1180.7
1537.14
1554.63
1202.52
831.102
803.483
832.372
894.864
999.306
1141.7
1345.37
1498.43
1473.69
1163.07
889.686
846.02
855.139
892.132
991.914
1122.19
1135.03
1065.41
1032.73
1105.92
1282.66
1496.71
1741.08
1857.02
1918.85
1963.95
1961.83
1848.63
1513.53
1087.98
867.271
837.985
854.802
942.576
1114.15
1320.56
1403.98
1353.43
1142.11
969.974
914.349
891.59
859.815
787.168
761.804
795.109
910.352
1109.41
1338.31
1439.78
1414.94
1265.47
1069.45
940.223
2101.69
2099.2
2094.68
2087.65
2076.81
2058.86
2031.5
2000.79
1968.56
1940.15
1913.98
1888.02
1867.09
1851.19
1829.88
1835.23
1847.84
1854.71
1871.15
1801.85
1716.38
1626.14
1572.6
1541.88
1597.12
1770.61
1884.08
1939.41
1974.96
1992.85
2044.15
2079.78
1967.49
1517.76
1019.14
797.126
788.382
814.366
803.235
787.581
857.657
1062.43
1412.73
1680.6
1594.08
1233.84
982.446
941.211
965.696
1041.72
1149.55
1328
1554.96
1590.14
1474.47
1129.21
911.805
862.168
867.757
904.418
1001.21
1072.52
1066.36
1056.91
1097.61
1241.04
1429.73
1683.5
1865.76
1943.23
2001.58
2044.21
2041.99
1943.73
1660.04
1253.75
1025.15
986.139
1008.79
1115.41
1298.96
1458.33
1477.91
1377.41
1110.76
940.203
889.944
865.3
829.328
786.579
791.826
856.339
1012.22
1245.78
1454.12
1509.11
1470.29
1306.53
1106.75
965.246
2094.64
2079.8
2061.1
2032.87
1992.38
1934.32
1867.91
1807.27
1757.77
1726.12
1700.56
1675.73
1652.78
1631.1
1603.7
1608.97
1615.66
1616.98
1626.53
1566.51
1492.01
1406.84
1349.98
1295.11
1312.68
1427.99
1544.53
1672.34
1793.78
1867.03
1962.8
2064.96
2044.24
1773.49
1141.58
855.446
786.898
789.321
801.109
841.903
1000.25
1268.66
1714.79
1825.66
1700.85
1378.27
1178.81
1120.26
1162.34
1292.97
1468.9
1646.11
1698.66
1660.62
1507.41
1272.86
1075.95
940.796
905.668
919.535
973.284
1023.1
1052.9
1093.04
1202.94
1373.52
1624.63
1849.4
1968.96
2025.1
2069.92
2097.54
2094.29
2021.71
1807.16
1434.38
1217.19
1176.62
1201.5
1307.26
1466.69
1543.33
1533.31
1399.99
1102.09
929.049
873.715
844.765
815.416
802.593
830.632
936.026
1133.84
1377.16
1541.33
1564.56
1518.08
1365.6
1169.25
999.138
2004.24
1908.64
1833.05
1771.5
1698.99
1598.57
1501.42
1433.85
1394.55
1379.49
1364.14
1343.41
1318.79
1296.13
1278.66
1299.56
1323.22
1338.36
1359.81
1323.92
1263.12
1181.05
1112.82
1039.2
1035.22
1096.23
1185.94
1326.53
1493.29
1614.8
1768.06
1936.6
2031.64
1980.99
1399.87
1004.16
868.206
849.98
875.024
976.967
1188.36
1619.88
1953.12
1978.44
1900.14
1720.78
1585.57
1536.19
1584.79
1708.15
1813.18
1853.96
1843.26
1776.25
1625.23
1421.01
1245.1
1062.44
964.387
956.09
981.357
1027.94
1080.62
1173.66
1328.88
1557.65
1826.05
1977.28
2048.44
2083.76
2112.21
2127.06
2125.76
2075.63
1923.57
1667.07
1425.3
1376.23
1400.52
1488.71
1586.91
1609.92
1581.73
1446.35
1139.19
932.54
868.451
839.833
822.477
829.517
888.943
1038.81
1271
1493.7
1616.33
1621.68
1564.81
1442.61
1252.98
1043.63
597.864
858.454
975.956
1001.15
978.651
943.842
927.662
923.294
927.217
935.03
929.75
916.711
906.425
911.826
929.908
973.62
1017.11
1044.22
1075.11
1050.89
998.004
921.529
853.251
794.197
793.847
840.706
927.612
1072.76
1225.38
1352.68
1523.62
1680.34
1853.58
1996.94
1770.34
1222.36
1027.89
1002.07
1039.58
1196.2
1578.31
1969.99
2047.25
2049.17
2033.52
1996.15
1966.91
1954.26
1968.93
2000.46
2010.42
2009.94
1994.24
1944.08
1837.49
1652.89
1403.98
1224.35
1085.49
1031.23
1040.31
1089.05
1174.52
1298.77
1516.27
1794.06
1986.12
2065.08
2100.38
2116.6
2118.75
2121.58
2132.95
2111.87
2015.07
1847.43
1680.84
1611.82
1608.76
1641.75
1671.69
1671.71
1635.39
1500.57
1212.52
972.432
885.083
854.525
849.326
875.136
976.422
1171.75
1407.88
1607.5
1682.91
1678.62
1621.68
1519.22
1344.95
1103.38
310.985
350.473
384.744
416.678
445.005
469.369
487.112
499.85
513.869
526.347
535.004
547.454
566.495
594.573
629.263
673.167
707.744
726.722
748.534
730.07
696.054
652.969
618.308
605.512
624.306
678.725
763.648
891.429
1012.03
1118.01
1242.34
1325.45
1477.73
1746.85
1974.02
1769.35
1409.16
1309
1371.76
1662.78
1981.01
1979.04
1952.42
1928.09
1944.41
1981.81
1998.93
2011.41
2024.38
2037.15
2046.8
2056.53
2063.76
2055.6
2013.15
1886.89
1654.94
1400.63
1253.62
1186.26
1176.62
1222.77
1313.57
1510.4
1794.13
1991.62
2077.07
2110.45
2112.95
2095.88
2079.06
2085
2112.54
2131.7
2080.03
1972.23
1859.51
1796.88
1761.16
1745.69
1748
1747.8
1714.85
1575.59
1318.86
1050.56
933.027
899.432
901.908
956.747
1105.85
1325.33
1547.4
1717.36
1755.67
1746.1
1687.46
1605.93
1440.98
1185.54
294.942
298.596
303.375
309.994
317.317
325.288
333.071
340.669
347.918
354.035
360.206
368.728
379.837
395.011
413.516
432.567
444.958
453.513
465.204
466.041
465.418
465.437
473.735
496.729
538.807
597.525
674.396
777.395
859.837
924.344
982.539
1002.02
1088.18
1281.88
1638.97
1912.49
1960.55
1886.81
1937
1947.06
1781.15
1662.23
1590.08
1556.02
1599.82
1688.94
1756.87
1810.91
1838.28
1854.77
1895.2
1952.52
2017.23
2062.11
2071.61
2040.08
1915.42
1734.24
1550.67
1413.95
1371.04
1442.52
1601.56
1830.35
2016.68
2075
2098.38
2085.27
2051.47
2012.59
1996.4
2016.12
2072.15
2122.31
2119.25
2057.48
1977.36
1912.48
1860.89
1835.02
1848.83
1867.46
1839.98
1694.35
1440.76
1187.72
1028.41
985.464
998.91
1091.7
1273.7
1482.89
1707.26
1826.43
1842.22
1829.55
1770.28
1703.23
1524.92
1299
294.055
294.318
294.804
295.656
296.827
298.349
299.921
301.604
303.44
305.392
307.753
310.954
314.966
320.007
325.835
331.298
335.777
341.132
349.108
358.913
373.775
392.886
421.75
462.032
511.292
566.04
629.62
705.207
754.436
785.771
803.411
800.536
833.623
909.228
1057.51
1255.56
1498.05
1630.07
1571
1339.99
1257.13
1219.19
1188.25
1195.06
1256.07
1340.78
1406.37
1451.33
1479.89
1521.41
1613.14
1717.39
1822.94
1919.32
1998.44
2049.76
2047.72
2007.38
1918.9
1815.3
1767.72
1834.2
1948.76
2034.79
2046.83
2046.76
2007.53
1964.57
1909.92
1882.92
1885.49
1925.87
1998.55
2080.34
2125.18
2108.8
2058.18
2003.59
1955.93
1953.1
1987.38
2010.2
1987.42
1865.57
1621.5
1354.72
1192.99
1138.34
1163.53
1276.28
1452.01
1680.33
1862.8
1934.83
1938.36
1923.66
1871.04
1817.86
1612.43
1428.64
294.003
294.021
294.064
294.152
294.297
294.514
294.761
295.043
295.377
295.795
296.39
297.238
298.382
299.935
301.837
303.781
306.078
310.054
317.279
328.969
348.919
378.116
416.809
462.755
511.204
560.122
607.916
652.591
680.88
698.93
713.298
723.817
742.261
769.409
811.474
853.377
904.672
954.885
972.107
978.657
1002.39
994.285
995.733
1019.38
1071.36
1129.08
1177.13
1218.24
1259.11
1321.07
1418.96
1512.54
1606.25
1687.6
1766.45
1866.18
1940.92
1983.05
2010.34
2013.98
2012.79
2016.06
2010.98
1958.98
1901.65
1864.33
1809.33
1768.59
1732.76
1733.26
1754.83
1806.36
1885.5
1986.86
2078.47
2120.09
2108.16
2078.56
2060.06
2060.43
2073.95
2084.8
2080.69
2027.27
1873.96
1593.3
1383.21
1335.15
1363.6
1488.26
1698.28
1880.67
2001.65
2039.23
2036.23
2023.62
1984.74
1944.15
1715.24
1569.51
294
294.001
294.004
294.012
294.026
294.049
294.077
294.114
294.163
294.236
294.361
294.56
294.841
295.267
295.886
296.795
298.418
301.589
310.418
328.425
359.596
405.724
460.687
511.624
548.804
579.032
605.7
631.575
652.269
668.851
684.269
700.616
722.729
748.453
778.653
811.083
843.941
876.051
904.863
923.206
928.096
923.449
929.735
958.201
1007.62
1059.57
1105.16
1145.9
1186.84
1242.2
1313.02
1363.16
1415.2
1453.34
1488.43
1537.96
1589.53
1639.61
1700.44
1752.29
1778.28
1760.64
1732.59
1666.53
1623.38
1603.21
1567.28
1552.71
1548.38
1569.51
1601.07
1650.36
1726.49
1833.18
1949.67
2045.48
2084.08
2083.02
2066.18
2036.62
2007.5
2018.4
2054.89
2079.68
2046.88
1907.68
1720.73
1643.19
1681.2
1804.25
1940.18
2036.47
2090.87
2104.78
2101.21
2094.21
2076.89
2057.06
1853.88
1776.22
294
294
294
294.001
294.002
294.004
294.007
294.011
294.018
294.03
294.056
294.102
294.178
294.312
294.574
295.081
296.643
301.405
313.71
340.067
386.884
454.507
525.088
569.713
588.968
602.622
617.071
635.214
651.833
666.017
679.803
697.256
724.066
757.752
793.04
829.981
863.249
892.099
913.884
921.432
903.757
905.1
925.997
972.506
1024.79
1067.77
1099.51
1121.26
1141.14
1175.8
1205.38
1205.01
1221.16
1218.31
1206
1200.11
1205.64
1221.57
1253.08
1288.16
1318.17
1332.95
1346.17
1328.92
1320.61
1324.67
1322.8
1335.56
1353.35
1382.17
1405.49
1446.43
1515.25
1613.66
1725.33
1831.29
1883.99
1878.53
1830.41
1762.92
1740.24
1780.97
1856.92
1949.69
2034.42
2054.37
2016.9
1981.4
1992.23
2033.08
2069.5
2092.65
2086.73
2093.19
2099.5
2084.01
2079.84
2074.5
2015.66
2001
294
294
294
294
294
294
294.001
294.001
294.002
294.004
294.009
294.021
294.045
294.092
294.244
294.75
296.387
301.537
316.491
350.661
412.565
499.138
572.542
598.788
606.126
614.509
628.779
643.769
654.429
658.088
664.319
682.705
723
774.956
827.781
880.151
921.554
940.814
944.382
920.072
903.322
917.125
958.618
1014.42
1050.61
1063.64
1064.55
1053.92
1047.88
1049.63
1030.84
1004.1
999.894
972.758
933.612
901.673
888.411
887.007
900.625
924.163
955.579
986.77
1016.4
1030.24
1052.51
1081.92
1105
1134.66
1157.71
1175.6
1183.96
1209.54
1258.06
1330.22
1416.57
1488.02
1500.51
1464.94
1410.25
1402.65
1446.26
1514.59
1579.42
1659.6
1774.19
1916.87
1994.92
2021.61
2028.91
2028.35
2006.53
1954.54
1905.91
1928.23
1926.65
1862.89
1847.61
1841.13
2024.19
2005.43
294
294
294
294
294
294
294
294
294
294.001
294.002
294.007
294.023
294.077
294.257
294.853
296.789
302.908
320.84
361.886
436.493
534.163
591.443
599.054
602.788
615.27
632.935
636.228
629.841
623.138
630.679
665.15
726.705
802.886
874.642
942.73
983.339
988.467
956.928
914.889
918.512
965.447
1010.17
1027.89
1032.82
1013.6
980.732
947.93
922.806
898.085
862.128
833.754
816.827
782.424
738.18
695.201
662.921
646.679
654.863
676.2
710.459
749.718
788.191
822.593
860.9
900.226
933.128
960.988
967.611
964.766
959.397
969.621
996.794
1038.62
1085.4
1106.5
1099.03
1079.61
1101.52
1161.56
1248.87
1282.77
1291.76
1321.71
1389.77
1512
1631.64
1693.07
1703.33
1677.32
1623.85
1556.86
1516.67
1548.39
1501.54
1368.32
1332.9
1317.33
1568.83
1559.97
294
294
294
294
294
294
294
294
294
294
294.001
294.005
294.016
294.058
294.202
294.688
296.291
301.451
317.499
358.114
438.221
540.882
582.465
581.733
586.668
607.734
618.559
605.964
583.834
580.123
600.993
660.649
752.804
853.635
939.542
1007.5
1027.11
996.72
942.63
923.038
968.963
996.912
999.912
991.886
964.168
918.421
877.881
843.29
816.666
792.208
766.483
746.451
729.495
700.75
664.857
619.843
572.346
541.266
543.629
564.578
605.851
653.639
694.451
729.038
763.028
796.428
818.045
818.27
803.866
789.495
783.048
790.43
804.132
818.736
830.846
834.131
846.785
896.364
978.209
1055.03
1093.74
1041.44
965.755
933.37
937.079
985.45
1043.86
1063.18
1054.88
1041.24
1017.35
987.897
974.644
972.35
910.663
808.327
793.623
804.394
922.293
1080.3
294
294
294
294
294
294
294
294
294
294
294.001
294.004
294.014
294.05
294.176
294.602
296.019
300.619
315.101
354.159
434.724
534.388
559.477
554.029
562.739
589.033
588.099
563.847
543.896
547.794
583.34
670.698
797.055
922.872
1015.16
1055.65
1032.46
975.119
926.164
950.434
971.689
969.805
939.917
899.396
861.114
821.335
791.961
769.277
753.019
740.123
726.679
714.577
703.131
686.713
662.508
624.107
566.073
514.41
509.783
530.877
582.459
640.982
679.56
703.448
723.761
738.64
732.309
713.321
694.852
693.452
702.455
719.398
729.592
729.513
727.499
734.332
762.511
843.783
946.316
947.811
838.978
701.036
594.378
541.72
518.057
523.289
534.7
533.497
533.699
541.583
546.712
550.754
559.722
557.532
543.389
536.911
551.042
584.847
662.778
882.425
294
294
294
294
294
294
294
294
294
294
294.001
294.002
294.009
294.032
294.115
294.402
295.385
298.666
309.216
341.374
415.979
513.54
534.233
526.937
535.001
558.73
554.99
530.751
514.41
522.911
571.841
689.797
852.596
997.131
1068.03
1058.88
1003.43
931.417
916.349
933.555
926.251
872.012
823.251
782.746
752.184
724.213
705.936
693.26
686.19
683.026
678.902
674.075
674.055
672.822
668.492
649.972
598.466
521.385
495.331
515.801
579.681
649.975
684.312
697.904
699.984
693.847
671.252
656.942
657.573
663.627
682.068
707.45
714.492
707.268
698.515
710.001
759.304
845.819
811.909
661.906
503.035
417.537
381.074
364.643
357.272
358.939
363.458
368.652
376.274
387.182
399.091
411.52
425.262
438.018
450.187
462.765
482.743
519.24
591.771
808.824
294
294
294
294
294
294
294
294
294
294
294
294.001
294.006
294.021
294.075
294.265
294.918
297.121
304.352
327.279
387.802
479.541
509.977
502.863
503.7
519.29
518.983
501.507
485.91
498.601
564.117
720.859
919.459
1050.95
1065.86
1023.27
929.521
876.689
872.107
854.881
770.186
693.686
649.689
617.891
598.339
580.367
571.273
566.719
565.674
565.191
562.69
558.624
563.385
573.378
597.465
610.686
594.482
530.957
477.537
492.03
564.163
652.389
689.116
692.644
686.907
666.738
642.949
641.407
650.105
682.383
763.423
812.446
800.042
749.464
704.037
715.561
755.122
691.442
521.702
408.996
349.619
324.785
316.454
315.166
316.195
319.486
325.814
333.876
343.241
355.782
369.079
383.02
399.24
416.868
435.987
457.822
483.565
513.088
561.657
715.87
294
294
294
294
294
294
294
294
294
294
294
294.001
294.003
294.01
294.036
294.128
294.455
295.587
299.421
311.882
350.17
424.103
475.861
476.158
469.281
473.034
473.259
461.568
451.204
471.368
559.619
759.696
973.236
1048.75
1020.18
905.727
795.607
748.319
708.09
603.613
520.596
477.394
451.856
432.214
420.473
413.62
412.869
416.957
424.014
427.453
428.174
428.564
432.791
442.688
466.008
502.411
514.479
493.652
450.628
458.675
526.6
636.425
692.812
696.717
687.111
654.836
634.802
643.752
680.32
778.02
913.797
939.176
894.638
780.283
704.272
692.212
605.383
437.751
366.371
331.675
316.643
308.247
304.561
304.211
305.245
308.851
315.947
325.388
335.785
347.03
357.626
369.465
385.545
403.986
425.682
453.84
486.821
519.679
554.903
637.559
294
294
294
294
294
294
294
294
294
294
294
294
294.001
294.004
294.015
294.054
294.193
294.684
296.379
302.069
320.539
366.822
422.486
434.515
427.339
420.638
419.712
412.709
410.518
443.193
562.468
807.961
994.332
1004.25
871.489
672.955
568.416
526.985
487.553
452.422
432.187
419.508
403.408
384.989
367.259
352.651
342.695
336.761
336.501
338.771
341.378
343.743
347.874
355.495
371.886
403.177
430.513
426.855
411.279
419.612
479.583
600.871
691.017
701.55
688.754
643.38
631.151
656.149
744.384
904.952
1035.82
1029.53
939.878
768.467
678.357
580.478
414.002
352.118
333.233
326.15
319.113
309.892
302.693
300.961
301.798
304.716
310.396
316.982
322.98
329.4
335.574
344.421
359.62
378.462
402.732
437.344
480.325
524.195
559.617
622.924
294
294
294
294
294
294
294
294
294
294
294
294
294
294.001
294.004
294.015
294.056
294.206
294.754
296.684
303.194
323.752
359.176
374.22
370.524
361.949
359.859
359.701
367.98
415.517
565.695
836.079
967.684
866.175
638.58
503.163
480.103
481.788
480.23
476.647
476.06
462.4
434.265
401.34
370.558
344.644
325.624
314.492
308.882
307.783
308.3
309.256
310.984
314.409
322.71
340.724
365.387
371.6
372.251
381.691
429.982
542.992
665.634
692.82
673.251
620.529
624.329
678.021
828.28
1021.99
1092.85
1059.8
913.265
723.177
592.485
443.039
366.018
349.527
344.984
338.389
328.518
316.094
304.415
299.518
299.473
300.792
303.75
307.047
310.457
315.116
321.098
329.101
340.976
357.639
383.063
424.043
476.523
530.258
571.342
635.305
294
294
294
294
294
294
294
294
294
294
294
294
294
294
294.001
294.004
294.014
294.054
294.203
294.74
296.597
302.223
312.732
319.636
319.045
316.773
316.723
319.877
336.905
394.368
563.392
838.422
913.928
709.078
507.135
470.754
484.753
501.155
510.044
510.911
500.615
476.626
440.456
400.267
366.779
343.211
325.04
310
301.383
298.564
298.261
298.509
299.156
300.499
303.789
311.673
324.511
334.004
339.731
350.76
385.742
472.747
602.129
648.928
627.127
591.11
613.04
707.595
903.535
1085
1108.13
1028.05
827.444
629.739
474.234
386.813
362.483
354.172
346.847
339.502
329.74
317.832
306.304
298.947
297.612
297.965
299.163
301.251
304.923
310.786
318.719
327.386
337.137
350.305
369.945
403.714
456.953
516.484
567.093
641.191
294
294
294
294
294
294
294
294
294
294
294
294
294
294
294
294.001
294.003
294.012
294.047
294.172
294.572
295.495
296.799
297.883
298.478
298.978
300.163
304.821
322.687
383.221
568.045
831.563
847.778
603.839
480.806
476.161
506.333
518.139
520.338
520.136
510.769
480.881
426.431
370.875
336.392
319.103
310.641
304.971
299.604
296.074
295.296
295.333
295.539
296.044
297.383
300.732
306.424
312.451
318.648
328.772
352.672
411.901
521.724
580.866
566.969
558.862
597.59
732.009
950.065
1110.84
1084.36
923.418
694.431
506.988
403.826
371.682
357.021
334.447
325.608
323.153
319.926
314.898
306.796
299.097
296.41
296.433
297.096
299.152
303.835
312.366
325.043
336.656
344.294
354.677
370.982
395.233
431.372
482.17
552.003
621.151
294
294
294
294
294
294
294
294
294
294
294
294
294
294
294
294
294
294.002
294.007
294.024
294.077
294.187
294.351
294.529
294.729
295.043
295.795
299.496
313.282
362.46
524.769
784.757
803.927
613.753
485.461
482.27
507.16
517.649
526.394
526.209
516.534
482.029