/*--------------------------------*- C++ -*----------------------------------*\
| =========                 |                                                 |
| \\      /  F ield         | OpenFOAM: The Open Source CFD Toolbox           |
|  \\    /   O peration     | Version:  2.3.0                                 |
|   \\  /    A nd           | Web:      www.OpenFOAM.org                      |
|    \\/     M anipulation  |                                                 |
\*---------------------------------------------------------------------------*/
FoamFile
{
    version     2.0;
    format      ascii;
    class       volScalarField;
    location    "0.04";
    object      thermo:mu;
}
// * * * * * * * * * * * * * * * * * * * * * * * * * * * * * * * * * * * * * //

dimensions      [1 -1 -1 0 0 0 0];

internalField   nonuniform List<scalar> 
5000
(
1.81402e-05
1.81402e-05
1.81402e-05
1.81402e-05
1.81402e-05
1.81402e-05
1.81402e-05
1.81402e-05
1.81402e-05
1.81402e-05
1.81402e-05
1.81402e-05
1.81402e-05
1.81402e-05
1.81402e-05
1.81402e-05
1.81402e-05
1.81402e-05
1.81402e-05
1.81402e-05
1.81402e-05
1.81402e-05
1.81402e-05
1.81402e-05
1.81402e-05
1.81402e-05
1.81402e-05
1.81402e-05
1.81402e-05
1.81402e-05
1.81402e-05
1.81402e-05
1.81402e-05
1.81402e-05
1.81402e-05
1.81402e-05
1.81402e-05
1.81402e-05
1.81402e-05
1.81403e-05
1.81405e-05
1.8141e-05
1.81421e-05
1.81443e-05
1.8148e-05
1.81533e-05
1.81587e-05
1.81611e-05
1.81577e-05
1.81523e-05
1.81482e-05
1.81451e-05
1.81432e-05
1.81422e-05
1.8142e-05
1.81428e-05
1.81444e-05
1.81468e-05
1.81487e-05
1.81487e-05
1.81474e-05
1.8146e-05
1.81446e-05
1.81437e-05
1.81436e-05
1.81446e-05
1.81472e-05
1.81517e-05
1.81588e-05
1.81691e-05
1.81835e-05
1.81982e-05
1.82022e-05
1.81908e-05
1.81777e-05
1.81689e-05
1.81649e-05
1.81661e-05
1.81716e-05
1.81801e-05
1.81911e-05
1.82043e-05
1.8217e-05
1.82243e-05
1.82247e-05
1.82237e-05
1.82271e-05
1.82372e-05
1.82593e-05
1.8336e-05
1.84823e-05
1.86705e-05
1.88961e-05
1.9176e-05
1.95118e-05
1.98966e-05
2.03138e-05
2.07472e-05
2.12192e-05
2.18887e-05
1.81402e-05
1.81402e-05
1.81402e-05
1.81402e-05
1.81402e-05
1.81402e-05
1.81402e-05
1.81402e-05
1.81402e-05
1.81402e-05
1.81402e-05
1.81402e-05
1.81402e-05
1.81402e-05
1.81402e-05
1.81402e-05
1.81402e-05
1.81402e-05
1.81402e-05
1.81402e-05
1.81402e-05
1.81402e-05
1.81402e-05
1.81402e-05
1.81402e-05
1.81402e-05
1.81402e-05
1.81402e-05
1.81402e-05
1.81402e-05
1.81402e-05
1.81402e-05
1.81402e-05
1.81402e-05
1.81402e-05
1.81402e-05
1.81402e-05
1.81403e-05
1.81404e-05
1.8141e-05
1.81432e-05
1.81497e-05
1.81662e-05
1.82025e-05
1.82787e-05
1.84157e-05
1.86073e-05
1.87951e-05
1.87405e-05
1.85473e-05
1.83902e-05
1.82877e-05
1.82245e-05
1.81899e-05
1.81745e-05
1.81793e-05
1.82107e-05
1.82801e-05
1.83577e-05
1.8363e-05
1.83177e-05
1.82706e-05
1.82313e-05
1.82049e-05
1.81918e-05
1.81996e-05
1.82304e-05
1.82933e-05
1.84056e-05
1.85989e-05
1.89232e-05
1.93948e-05
1.98186e-05
1.95686e-05
1.90818e-05
1.87289e-05
1.8507e-05
1.83927e-05
1.83623e-05
1.83989e-05
1.84948e-05
1.86583e-05
1.88595e-05
1.89395e-05
1.88586e-05
1.87221e-05
1.86033e-05
1.84983e-05
1.84451e-05
1.85225e-05
1.87918e-05
1.92369e-05
1.97806e-05
2.03621e-05
2.09796e-05
2.16268e-05
2.22878e-05
2.29341e-05
2.35941e-05
2.46441e-05
1.81402e-05
1.81402e-05
1.81402e-05
1.81402e-05
1.81402e-05
1.81402e-05
1.81402e-05
1.81402e-05
1.81402e-05
1.81402e-05
1.81402e-05
1.81402e-05
1.81402e-05
1.81402e-05
1.81402e-05
1.81402e-05
1.81402e-05
1.81402e-05
1.81402e-05
1.81402e-05
1.81402e-05
1.81402e-05
1.81403e-05
1.81404e-05
1.81403e-05
1.81402e-05
1.81402e-05
1.81402e-05
1.81402e-05
1.81402e-05
1.81402e-05
1.81402e-05
1.81404e-05
1.81405e-05
1.81404e-05
1.81403e-05
1.81404e-05
1.81405e-05
1.81412e-05
1.81431e-05
1.81498e-05
1.81718e-05
1.82301e-05
1.83624e-05
1.86594e-05
1.93e-05
2.05012e-05
2.24501e-05
2.39219e-05
2.35959e-05
2.19095e-05
2.02692e-05
1.93754e-05
1.86817e-05
1.82918e-05
1.82824e-05
1.83969e-05
1.87783e-05
1.9574e-05
2.02536e-05
2.02228e-05
1.98601e-05
1.92202e-05
1.87037e-05
1.84236e-05
1.84197e-05
1.85389e-05
1.8862e-05
1.9428e-05
2.03238e-05
2.19098e-05
2.46214e-05
2.8299e-05
2.98792e-05
2.89549e-05
2.5351e-05
2.15995e-05
1.96149e-05
1.89917e-05
1.90499e-05
1.93747e-05
2.00087e-05
2.08808e-05
2.16557e-05
2.16759e-05
2.1373e-05
2.05845e-05
1.94339e-05
1.88232e-05
1.88638e-05
1.92198e-05
1.98957e-05
2.0707e-05
2.15537e-05
2.23885e-05
2.32183e-05
2.40336e-05
2.48111e-05
2.55897e-05
2.70004e-05
1.81402e-05
1.81402e-05
1.81402e-05
1.81402e-05
1.81402e-05
1.81402e-05
1.81402e-05
1.81402e-05
1.81402e-05
1.81402e-05
1.81402e-05
1.81402e-05
1.81402e-05
1.81402e-05
1.81402e-05
1.81402e-05
1.81402e-05
1.81402e-05
1.81402e-05
1.81403e-05
1.81406e-05
1.81419e-05
1.81453e-05
1.81476e-05
1.81443e-05
1.81419e-05
1.81409e-05
1.81405e-05
1.81403e-05
1.81403e-05
1.81407e-05
1.81419e-05
1.81452e-05
1.81491e-05
1.81475e-05
1.81443e-05
1.81426e-05
1.81422e-05
1.81439e-05
1.81494e-05
1.8168e-05
1.82298e-05
1.83991e-05
1.87808e-05
1.9524e-05
2.07343e-05
2.25755e-05
2.51881e-05
2.85336e-05
3.12932e-05
3.12392e-05
2.92186e-05
2.41934e-05
1.97967e-05
1.85464e-05
1.84994e-05
1.86891e-05
1.92949e-05
2.04416e-05
2.20992e-05
2.31393e-05
2.30311e-05
2.21311e-05
2.03705e-05
1.90602e-05
1.89877e-05
1.93543e-05
2.03724e-05
2.2007e-05
2.4106e-05
2.66695e-05
2.98887e-05
3.38309e-05
3.80796e-05
3.94497e-05
3.79414e-05
3.21072e-05
2.36062e-05
2.01322e-05
1.99741e-05
2.03008e-05
2.11574e-05
2.24068e-05
2.39601e-05
2.47594e-05
2.46075e-05
2.38485e-05
2.18364e-05
1.97444e-05
1.94384e-05
1.97394e-05
2.04959e-05
2.15114e-05
2.25929e-05
2.36885e-05
2.4791e-05
2.58726e-05
2.68725e-05
2.78205e-05
2.95802e-05
1.81402e-05
1.81402e-05
1.81402e-05
1.81402e-05
1.81402e-05
1.81402e-05
1.81402e-05
1.81402e-05
1.81402e-05
1.81402e-05
1.81402e-05
1.81402e-05
1.81402e-05
1.81402e-05
1.81402e-05
1.81402e-05
1.81402e-05
1.81403e-05
1.81405e-05
1.81419e-05
1.81484e-05
1.81753e-05
1.82505e-05
1.83245e-05
1.82517e-05
1.81889e-05
1.81602e-05
1.81481e-05
1.81437e-05
1.81438e-05
1.81504e-05
1.81733e-05
1.82373e-05
1.83321e-05
1.83041e-05
1.82349e-05
1.81918e-05
1.81681e-05
1.81604e-05
1.81723e-05
1.82181e-05
1.83812e-05
1.88007e-05
1.9627e-05
2.0887e-05
2.25831e-05
2.4705e-05
2.73071e-05
3.04345e-05
3.42553e-05
3.72537e-05
3.68298e-05
3.26025e-05
2.37939e-05
1.93293e-05
1.89352e-05
1.91561e-05
1.98816e-05
2.11503e-05
2.29767e-05
2.50835e-05
2.57409e-05
2.52351e-05
2.3171e-05
2.06169e-05
2.03176e-05
2.10095e-05
2.28673e-05
2.54401e-05
2.81752e-05
3.09956e-05
3.41176e-05
3.77409e-05
4.17904e-05
4.52211e-05
4.51968e-05
4.24961e-05
3.36123e-05
2.34065e-05
2.10409e-05
2.11704e-05
2.19222e-05
2.32885e-05
2.51615e-05
2.71488e-05
2.75321e-05
2.71078e-05
2.50957e-05
2.15091e-05
2.01794e-05
2.0385e-05
2.11634e-05
2.23648e-05
2.37306e-05
2.51376e-05
2.6591e-05
2.80562e-05
2.94212e-05
3.06851e-05
3.29168e-05
1.81402e-05
1.81402e-05
1.81402e-05
1.81402e-05
1.81402e-05
1.81402e-05
1.81402e-05
1.81402e-05
1.81402e-05
1.81402e-05
1.81402e-05
1.81402e-05
1.81402e-05
1.81403e-05
1.81403e-05
1.81403e-05
1.81405e-05
1.81414e-05
1.81456e-05
1.81642e-05
1.82372e-05
1.85148e-05
1.94455e-05
2.13058e-05
2.03618e-05
1.9189e-05
1.85851e-05
1.83194e-05
1.82153e-05
1.8183e-05
1.82023e-05
1.83049e-05
1.87439e-05
2.01672e-05
2.04009e-05
1.96247e-05
1.89688e-05
1.85758e-05
1.83429e-05
1.82683e-05
1.83568e-05
1.87508e-05
1.96502e-05
2.10847e-05
2.29761e-05
2.51318e-05
2.74814e-05
3.01594e-05
3.32027e-05
3.67308e-05
4.09927e-05
4.23017e-05
4.01891e-05
3.20543e-05
2.21808e-05
1.98325e-05
1.9967e-05
2.07496e-05
2.22642e-05
2.4326e-05
2.67975e-05
2.83509e-05
2.81021e-05
2.61399e-05
2.27447e-05
2.20661e-05
2.29054e-05
2.51937e-05
2.82765e-05
3.14416e-05
3.46479e-05
3.81877e-05
4.22949e-05
4.62213e-05
4.91073e-05
4.93456e-05
4.8363e-05
4.32348e-05
3.17859e-05
2.31735e-05
2.23267e-05
2.27917e-05
2.41097e-05
2.61461e-05
2.87259e-05
3.05265e-05
3.04382e-05
2.88046e-05
2.42148e-05
2.11697e-05
2.11849e-05
2.18951e-05
2.32377e-05
2.48982e-05
2.66998e-05
2.86283e-05
3.06106e-05
3.2481e-05
3.4153e-05
3.67441e-05
1.81402e-05
1.81402e-05
1.81402e-05
1.81402e-05
1.81402e-05
1.81402e-05
1.81402e-05
1.81402e-05
1.81402e-05
1.81403e-05
1.81404e-05
1.81406e-05
1.81414e-05
1.81422e-05
1.81422e-05
1.81426e-05
1.8145e-05
1.81528e-05
1.81738e-05
1.82439e-05
1.85396e-05
1.96222e-05
2.30694e-05
3.17223e-05
3.57243e-05
3.10278e-05
2.42919e-05
2.09384e-05
1.91506e-05
1.83765e-05
1.83833e-05
1.86719e-05
1.97978e-05
2.26985e-05
2.68416e-05
2.6871e-05
2.45858e-05
2.13316e-05
1.93833e-05
1.85891e-05
1.86619e-05
1.92447e-05
2.0574e-05
2.26073e-05
2.50843e-05
2.77204e-05
3.0454e-05
3.34963e-05
3.69196e-05
4.05043e-05
4.47313e-05
4.76553e-05
4.67608e-05
4.15264e-05
2.98889e-05
2.19426e-05
2.15469e-05
2.23034e-05
2.41364e-05
2.66199e-05
2.952e-05
3.17103e-05
3.158e-05
2.94537e-05
2.51191e-05
2.39119e-05
2.47341e-05
2.71574e-05
3.06231e-05
3.44108e-05
3.84864e-05
4.30466e-05
4.77711e-05
5.11507e-05
5.17971e-05
5.14494e-05
5.05812e-05
4.819e-05
4.05369e-05
2.82727e-05
2.395e-05
2.41146e-05
2.52721e-05
2.74977e-05
3.03621e-05
3.32468e-05
3.38669e-05
3.27334e-05
2.7837e-05
2.26699e-05
2.21624e-05
2.27435e-05
2.41697e-05
2.61395e-05
2.84025e-05
3.08625e-05
3.33902e-05
3.57883e-05
3.76724e-05
4.00231e-05
1.81404e-05
1.81404e-05
1.81403e-05
1.81403e-05
1.81404e-05
1.81407e-05
1.81412e-05
1.8142e-05
1.81429e-05
1.8144e-05
1.81465e-05
1.81543e-05
1.81731e-05
1.81947e-05
1.8193e-05
1.81861e-05
1.81894e-05
1.82155e-05
1.82862e-05
1.84663e-05
1.92051e-05
2.14289e-05
2.7202e-05
3.76679e-05
4.91361e-05
5.05769e-05
4.56004e-05
3.37675e-05
2.20491e-05
1.89886e-05
1.89099e-05
1.94426e-05
2.11993e-05
2.48368e-05
3.04681e-05
3.6304e-05
3.56725e-05
3.06718e-05
2.32062e-05
1.94644e-05
1.92421e-05
1.9889e-05
2.15994e-05
2.42274e-05
2.73352e-05
3.06124e-05
3.39431e-05
3.75794e-05
4.15476e-05
4.53198e-05
4.91105e-05
5.27473e-05
5.27909e-05
5.01595e-05
4.11459e-05
2.74507e-05
2.42855e-05
2.48461e-05
2.66939e-05
2.94225e-05
3.26385e-05
3.56106e-05
3.56836e-05
3.34122e-05
2.79135e-05
2.58254e-05
2.65671e-05
2.90889e-05
3.30314e-05
3.76811e-05
4.2893e-05
4.83938e-05
5.30006e-05
5.416e-05
5.3665e-05
5.16661e-05
4.9824e-05
4.81837e-05
4.38232e-05
3.32314e-05
2.6277e-05
2.60263e-05
2.70296e-05
2.95092e-05
3.28036e-05
3.60407e-05
3.72343e-05
3.64797e-05
3.18599e-05
2.48937e-05
2.33232e-05
2.37833e-05
2.5208e-05
2.74805e-05
3.02602e-05
3.32879e-05
3.62564e-05
3.88107e-05
4.04012e-05
4.17428e-05
1.81769e-05
1.81707e-05
1.81567e-05
1.81511e-05
1.81534e-05
1.8163e-05
1.8185e-05
1.82222e-05
1.82595e-05
1.82894e-05
1.83402e-05
1.84702e-05
1.87762e-05
1.92042e-05
1.93213e-05
1.90767e-05
1.88632e-05
1.87487e-05
1.88105e-05
1.91147e-05
2.02495e-05
2.35956e-05
3.07513e-05
4.22189e-05
5.38745e-05
6.11248e-05
5.98308e-05
4.95999e-05
3.37495e-05
2.14655e-05
2.0335e-05
2.10924e-05
2.36254e-05
2.83043e-05
3.43609e-05
4.16869e-05
4.5096e-05
4.22998e-05
3.29618e-05
2.246e-05
2.02121e-05
2.07554e-05
2.26516e-05
2.57936e-05
2.96714e-05
3.39349e-05
3.82388e-05
4.26431e-05
4.70613e-05
5.08898e-05
5.39791e-05
5.68529e-05
5.73354e-05
5.6077e-05
4.93041e-05
3.4151e-05
2.79604e-05
2.82454e-05
2.99674e-05
3.27261e-05
3.60264e-05
3.95298e-05
4.00037e-05
3.77991e-05
3.12105e-05
2.78864e-05
2.85191e-05
3.1163e-05
3.57225e-05
4.13054e-05
4.74794e-05
5.32595e-05
5.64648e-05
5.65216e-05
5.42519e-05
4.91716e-05
4.63686e-05
4.52414e-05
4.26476e-05
3.52279e-05
2.87289e-05
2.82042e-05
2.91968e-05
3.20104e-05
3.60235e-05
3.92804e-05
4.02105e-05
3.96489e-05
3.57055e-05
2.76866e-05
2.47353e-05
2.50526e-05
2.64407e-05
2.89671e-05
3.22098e-05
3.57403e-05
3.88538e-05
4.10562e-05
4.19212e-05
4.20534e-05
1.95082e-05
2.00732e-05
1.95714e-05
1.92347e-05
1.92189e-05
1.94264e-05
1.99521e-05
2.08311e-05
2.18023e-05
2.23792e-05
2.28249e-05
2.35999e-05
2.51445e-05
2.84941e-05
3.23648e-05
3.10369e-05
2.8098e-05
2.47971e-05
2.15062e-05
2.12393e-05
2.25854e-05
2.68494e-05
3.53414e-05
4.67871e-05
5.87618e-05
6.38713e-05
6.36547e-05
6.13069e-05
4.69275e-05
2.92684e-05
2.32046e-05
2.39523e-05
2.72695e-05
3.37362e-05
4.11428e-05
4.79099e-05
5.30366e-05
5.1928e-05
4.44007e-05
3.03461e-05
2.20897e-05
2.21577e-05
2.39876e-05
2.7677e-05
3.26754e-05
3.84533e-05
4.39059e-05
4.88343e-05
5.28495e-05
5.52761e-05
5.72728e-05
5.88488e-05
5.88539e-05
5.78906e-05
5.27535e-05
3.86892e-05
3.23795e-05
3.25644e-05
3.44015e-05
3.716e-05
4.01564e-05
4.37091e-05
4.45182e-05
4.24191e-05
3.50113e-05
3.01834e-05
3.06714e-05
3.3463e-05
3.86195e-05
4.50484e-05
5.18342e-05
5.70419e-05
5.84903e-05
5.78266e-05
5.29602e-05
4.568e-05
4.33034e-05
4.2631e-05
4.09143e-05
3.57115e-05
3.09112e-05
3.05856e-05
3.17298e-05
3.50221e-05
3.97186e-05
4.26121e-05
4.27543e-05
4.22084e-05
3.88175e-05
3.06482e-05
2.63885e-05
2.65498e-05
2.78592e-05
3.05593e-05
3.42066e-05
3.81064e-05
4.12693e-05
4.26154e-05
4.26709e-05
4.21222e-05
6.6587e-05
6.05347e-05
5.32802e-05
4.92999e-05
4.45662e-05
3.91645e-05
3.89157e-05
4.24836e-05
4.93845e-05
4.91463e-05
4.51241e-05
3.90987e-05
3.87816e-05
4.35226e-05
5.24876e-05
5.357e-05
4.92203e-05
4.11532e-05
2.84205e-05
2.52807e-05
2.66241e-05
3.17101e-05
4.132e-05
5.35283e-05
6.38802e-05
6.3451e-05
6.1133e-05
6.11167e-05
5.68956e-05
3.80352e-05
2.78856e-05
2.86014e-05
3.30984e-05
4.13855e-05
4.92312e-05
5.45064e-05
5.82686e-05
5.82228e-05
5.4567e-05
4.11019e-05
2.60323e-05
2.42571e-05
2.5879e-05
3.01889e-05
3.66639e-05
4.41121e-05
5.00767e-05
5.39475e-05
5.55635e-05
5.61224e-05
5.68537e-05
5.79787e-05
5.7989e-05
5.67421e-05
5.05737e-05
4.06819e-05
3.76726e-05
3.82809e-05
4.08606e-05
4.35158e-05
4.56823e-05
4.85094e-05
4.92215e-05
4.70446e-05
3.87287e-05
3.26454e-05
3.30408e-05
3.6079e-05
4.18387e-05
4.89172e-05
5.55919e-05
5.93837e-05
5.96888e-05
5.81811e-05
5.0387e-05
4.22517e-05
4.08712e-05
4.05451e-05
3.92151e-05
3.52713e-05
3.25539e-05
3.26774e-05
3.43429e-05
3.83233e-05
4.34008e-05
4.53723e-05
4.5239e-05
4.44941e-05
4.13808e-05
3.34683e-05
2.82567e-05
2.82719e-05
2.95038e-05
3.23313e-05
3.63024e-05
4.04227e-05
4.3319e-05
4.40672e-05
4.39783e-05
4.26222e-05
7.10561e-05
7.00463e-05
6.90569e-05
6.86171e-05
6.45678e-05
5.75483e-05
5.79993e-05
6.31828e-05
6.48839e-05
6.08389e-05
5.25776e-05
4.93401e-05
5.18956e-05
6.06341e-05
6.33781e-05
6.24235e-05
5.83519e-05
4.91321e-05
3.39184e-05
3.01412e-05
3.20635e-05
3.85947e-05
4.78079e-05
6.27046e-05
6.57861e-05
6.07586e-05
4.97192e-05
5.09243e-05
5.08962e-05
4.03794e-05
3.29217e-05
3.45903e-05
4.09292e-05
4.99908e-05
5.68158e-05
5.6861e-05
5.64187e-05
5.73356e-05
5.62131e-05
4.85217e-05
3.12057e-05
2.67928e-05
2.84154e-05
3.35487e-05
4.15434e-05
5.00806e-05
5.45338e-05
5.41181e-05
5.19921e-05
5.14644e-05
5.24481e-05
5.45667e-05
5.49829e-05
5.27499e-05
4.65341e-05
4.37762e-05
4.38344e-05
4.56773e-05
4.88729e-05
5.10789e-05
5.23459e-05
5.38182e-05
5.38892e-05
5.15091e-05
4.22766e-05
3.52944e-05
3.56909e-05
3.90351e-05
4.53975e-05
5.27625e-05
5.86035e-05
6.08923e-05
6.05923e-05
5.81557e-05
4.85153e-05
3.96428e-05
3.85377e-05
3.83775e-05
3.7349e-05
3.47373e-05
3.396e-05
3.46052e-05
3.71749e-05
4.20368e-05
4.66696e-05
4.75368e-05
4.72343e-05
4.63407e-05
4.347e-05
3.606e-05
3.026e-05
3.01338e-05
3.13248e-05
3.42868e-05
3.85156e-05
4.29323e-05
4.55793e-05
4.58991e-05
4.54791e-05
4.29851e-05
7.09849e-05
7.11728e-05
7.12055e-05
7.07167e-05
6.95121e-05
6.88464e-05
6.89057e-05
6.94964e-05
6.95518e-05
6.78035e-05
6.4898e-05
6.42328e-05
6.66378e-05
6.83431e-05
6.68513e-05
6.00875e-05
5.12045e-05
4.24165e-05
3.62602e-05
3.58954e-05
3.91308e-05
4.47657e-05
5.74205e-05
6.82959e-05
6.77263e-05
5.79555e-05
4.51933e-05
4.14828e-05
4.09076e-05
3.70761e-05
3.70145e-05
4.14954e-05
4.93752e-05
5.73217e-05
5.72787e-05
5.17873e-05
5.05882e-05
5.31293e-05
5.43495e-05
5.00432e-05
3.47879e-05
2.95902e-05
3.14909e-05
3.78424e-05
4.72061e-05
5.43903e-05
5.35861e-05
4.90923e-05
4.59583e-05
4.64427e-05
4.86853e-05
5.14318e-05
5.1136e-05
4.84507e-05
4.70033e-05
4.78609e-05
5.03489e-05
5.2609e-05
5.34606e-05
5.42486e-05
5.54094e-05
5.61135e-05
5.56602e-05
5.35846e-05
4.43795e-05
3.78476e-05
3.84966e-05
4.24143e-05
4.92579e-05
5.62051e-05
6.09749e-05
6.19504e-05
6.13831e-05
5.82604e-05
4.81019e-05
3.81342e-05
3.61583e-05
3.57442e-05
3.49927e-05
3.45218e-05
3.49402e-05
3.6812e-05
4.07549e-05
4.61341e-05
4.90158e-05
4.88325e-05
4.81319e-05
4.70748e-05
4.47228e-05
3.82268e-05
3.22744e-05
3.20261e-05
3.32703e-05
3.64559e-05
4.10684e-05
4.57771e-05
4.79433e-05
4.7864e-05
4.65906e-05
4.2973e-05
7.09218e-05
7.09557e-05
7.10355e-05
7.11685e-05
7.11886e-05
7.10969e-05
7.10694e-05
7.10544e-05
7.08909e-05
7.00692e-05
6.95087e-05
6.9456e-05
7.00389e-05
7.04053e-05
6.93921e-05
6.41818e-05
5.25935e-05
4.54488e-05
4.26354e-05
4.3158e-05
4.63772e-05
5.52401e-05
6.70823e-05
7.01841e-05
6.93849e-05
5.68565e-05
4.15537e-05
3.73268e-05
3.76238e-05
3.88825e-05
4.23534e-05
4.83664e-05
5.73835e-05
5.98021e-05
5.28706e-05
4.60394e-05
4.60029e-05
4.87052e-05
5.16761e-05
4.84461e-05
3.58777e-05
3.23689e-05
3.52981e-05
4.34092e-05
5.32555e-05
5.494e-05
4.9249e-05
4.24876e-05
4.20662e-05
4.36145e-05
4.69663e-05
4.81256e-05
4.76598e-05
4.77348e-05
4.90223e-05
5.27962e-05
5.35611e-05
5.16405e-05
4.88216e-05
4.92488e-05
5.17764e-05
5.4854e-05
5.50183e-05
5.30614e-05
4.46806e-05
4.02893e-05
4.15491e-05
4.62254e-05
5.31078e-05
5.92075e-05
6.2649e-05
6.30524e-05
6.24421e-05
5.93501e-05
5.01887e-05
3.79981e-05
3.45524e-05
3.42709e-05
3.44016e-05
3.49007e-05
3.65592e-05
4.00113e-05
4.51788e-05
4.98257e-05
5.02333e-05
4.92436e-05
4.77077e-05
4.64386e-05
4.45145e-05
3.94035e-05
3.4074e-05
3.38644e-05
3.53282e-05
3.89018e-05
4.40773e-05
4.89028e-05
5.03055e-05
4.96251e-05
4.70535e-05
4.28058e-05
7.09171e-05
7.09197e-05
7.09307e-05
7.09564e-05
7.09973e-05
7.10344e-05
7.10638e-05
7.11128e-05
7.10984e-05
7.09965e-05
7.08752e-05
7.08635e-05
7.10188e-05
7.11453e-05
7.03869e-05
6.88936e-05
6.21254e-05
5.41635e-05
5.02946e-05
5.17094e-05
5.79862e-05
6.68724e-05
6.92138e-05
7.03539e-05
7.00113e-05
6.39299e-05
4.63691e-05
4.1794e-05
4.18455e-05
4.36074e-05
4.96546e-05
5.85865e-05
6.21795e-05
5.9418e-05
4.78305e-05
4.32614e-05
4.37911e-05
4.66377e-05
4.90943e-05
4.57744e-05
3.59878e-05
3.51533e-05
3.98912e-05
4.95041e-05
5.68096e-05
5.42539e-05
4.37113e-05
3.94161e-05
3.98504e-05
4.19944e-05
4.44436e-05
4.5747e-05
4.70339e-05
4.95825e-05
5.39189e-05
5.44929e-05
5.10457e-05
4.49976e-05
4.31223e-05
4.38204e-05
4.66156e-05
5.15349e-05
5.34818e-05
5.14344e-05
4.45339e-05
4.27645e-05
4.4947e-05
5.04038e-05
5.65818e-05
6.19237e-05
6.40744e-05
6.45003e-05
6.4109e-05
6.12263e-05
5.30137e-05
4.01453e-05
3.53357e-05
3.48569e-05
3.50982e-05
3.64071e-05
3.95667e-05
4.43985e-05
4.99604e-05
5.20446e-05
5.09766e-05
4.79832e-05
4.55929e-05
4.45668e-05
4.34271e-05
3.95421e-05
3.55001e-05
3.55663e-05
3.74844e-05
4.17017e-05
4.74234e-05
5.1988e-05
5.25635e-05
5.09116e-05
4.69464e-05
4.27108e-05
7.0917e-05
7.09143e-05
7.09105e-05
7.09054e-05
7.08977e-05
7.08803e-05
7.08449e-05
7.07868e-05
7.06886e-05
7.05781e-05
7.04533e-05
7.03281e-05
7.02716e-05
7.03516e-05
7.03179e-05
6.98941e-05
6.89081e-05
6.61446e-05
6.16871e-05
6.44191e-05
6.84501e-05
6.82193e-05
6.82271e-05
6.83062e-05
6.93099e-05
6.8672e-05
5.89863e-05
5.03588e-05
4.94387e-05
5.34871e-05
6.13003e-05
6.57815e-05
6.48554e-05
5.72958e-05
4.44933e-05
4.13184e-05
4.24348e-05
4.57073e-05
4.67067e-05
4.2568e-05
3.65191e-05
3.80938e-05
4.50981e-05
5.48893e-05
5.83478e-05
5.21675e-05
4.05638e-05
3.84242e-05
3.88753e-05
4.05351e-05
4.31263e-05
4.59814e-05
4.95404e-05
5.46766e-05
5.63568e-05
5.3019e-05
4.47171e-05
4.11999e-05
4.12413e-05
4.20101e-05
4.44959e-05
4.92911e-05
5.12145e-05
4.91086e-05
4.48949e-05
4.52273e-05
4.88623e-05
5.43352e-05
6.01682e-05
6.41057e-05
6.56111e-05
6.62693e-05
6.61463e-05
6.35413e-05
5.57973e-05
4.35275e-05
3.7572e-05
3.68313e-05
3.72153e-05
3.9328e-05
4.36437e-05
4.92907e-05
5.3564e-05
5.35777e-05
5.03941e-05
4.58966e-05
4.3714e-05
4.2948e-05
4.20687e-05
3.91029e-05
3.66538e-05
3.71573e-05
3.98243e-05
4.4836e-05
5.09682e-05
5.45734e-05
5.45051e-05
5.1705e-05
4.67786e-05
4.28807e-05
7.09144e-05
7.0904e-05
7.08863e-05
7.0856e-05
7.07965e-05
7.06909e-05
7.0527e-05
7.03094e-05
7.00296e-05
6.97127e-05
6.93862e-05
6.90195e-05
6.87372e-05
6.86093e-05
6.84618e-05
6.87716e-05
6.87474e-05
6.84934e-05
6.87719e-05
6.83095e-05
6.72413e-05
6.55783e-05
6.45214e-05
6.42242e-05
6.60536e-05
6.87721e-05
6.84755e-05
6.53446e-05
6.35746e-05
6.6311e-05
6.87268e-05
6.93223e-05
6.66431e-05
5.5537e-05
4.32488e-05
3.95978e-05
4.07488e-05
4.37164e-05
4.34799e-05
3.91011e-05
3.80542e-05
4.21549e-05
5.01997e-05
5.90061e-05
5.94078e-05
5.07778e-05
3.99926e-05
3.90935e-05
4.00335e-05
4.20083e-05
4.51479e-05
4.91517e-05
5.44276e-05
5.81085e-05
5.7528e-05
4.97284e-05
4.18476e-05
4.04715e-05
4.0762e-05
4.19235e-05
4.49318e-05
4.86199e-05
4.89705e-05
4.7043e-05
4.61145e-05
4.81726e-05
5.2853e-05
5.80683e-05
6.35424e-05
6.59918e-05
6.72639e-05
6.81776e-05
6.81349e-05
6.58174e-05
5.84601e-05
4.76751e-05
4.11458e-05
4.02141e-05
4.07513e-05
4.3466e-05
4.83995e-05
5.38096e-05
5.5863e-05
5.46269e-05
4.91628e-05
4.4285e-05
4.26086e-05
4.19067e-05
4.09103e-05
3.85545e-05
3.77046e-05
3.88176e-05
4.2486e-05
4.8269e-05
5.42522e-05
5.67236e-05
5.61277e-05
5.2414e-05
4.71567e-05
4.33951e-05
7.08995e-05
7.08511e-05
7.07634e-05
7.06265e-05
7.04151e-05
7.00639e-05
6.9525e-05
6.89156e-05
6.82703e-05
6.76968e-05
6.71646e-05
6.66324e-05
6.62007e-05
6.58708e-05
6.54261e-05
6.55381e-05
6.5801e-05
6.5944e-05
6.62846e-05
6.48372e-05
6.30093e-05
6.10242e-05
5.98176e-05
5.91152e-05
6.03731e-05
6.41746e-05
6.65515e-05
6.7682e-05
6.83991e-05
6.87572e-05
6.97746e-05
7.04731e-05
6.82489e-05
5.85583e-05
4.57236e-05
3.88842e-05
3.85949e-05
3.94497e-05
3.90853e-05
3.85683e-05
4.08419e-05
4.69589e-05
5.60744e-05
6.22292e-05
6.03044e-05
5.15977e-05
4.46536e-05
4.34249e-05
4.4158e-05
4.63716e-05
4.93642e-05
5.39955e-05
5.94154e-05
6.02154e-05
5.75463e-05
4.88118e-05
4.25306e-05
4.09848e-05
4.11612e-05
4.23035e-05
4.52035e-05
4.72429e-05
4.70699e-05
4.68031e-05
4.79428e-05
5.17845e-05
5.64832e-05
6.22926e-05
6.6173e-05
6.77593e-05
6.89312e-05
6.97758e-05
6.9732e-05
6.77694e-05
6.17768e-05
5.21129e-05
4.58968e-05
4.47623e-05
4.54239e-05
4.8434e-05
5.32662e-05
5.7165e-05
5.76275e-05
5.52164e-05
4.83061e-05
4.33945e-05
4.18556e-05
4.10837e-05
3.99353e-05
3.8535e-05
3.8709e-05
4.08001e-05
4.55234e-05
5.19072e-05
5.70651e-05
5.83574e-05
5.74479e-05
5.34574e-05
4.81955e-05
4.41446e-05
7.07626e-05
7.04735e-05
7.01078e-05
6.95521e-05
6.87477e-05
6.75786e-05
6.62175e-05
6.49514e-05
6.39004e-05
6.32199e-05
6.26655e-05
6.21223e-05
6.16163e-05
6.11348e-05
6.05211e-05
6.06397e-05
6.07897e-05
6.08193e-05
6.10328e-05
5.9679e-05
5.79584e-05
5.59323e-05
5.45416e-05
5.3169e-05
5.36119e-05
5.64414e-05
5.91762e-05
6.20477e-05
6.46665e-05
6.61994e-05
6.81545e-05
7.01834e-05
6.97764e-05
6.4236e-05
4.91485e-05
4.07717e-05
3.85456e-05
3.8626e-05
3.90154e-05
4.03397e-05
4.51754e-05
5.24957e-05
6.29748e-05
6.53378e-05
6.26716e-05
5.52375e-05
5.01493e-05
4.85671e-05
4.97087e-05
5.31148e-05
5.7415e-05
6.14685e-05
6.2624e-05
6.17895e-05
5.83178e-05
5.26031e-05
4.73391e-05
4.34124e-05
4.2342e-05
4.27672e-05
4.43831e-05
4.58376e-05
4.66895e-05
4.7816e-05
5.07888e-05
5.51212e-05
6.09905e-05
6.58334e-05
6.82784e-05
6.93984e-05
7.02806e-05
7.08188e-05
7.07557e-05
6.93313e-05
6.49491e-05
5.65945e-05
5.11633e-05
5.00909e-05
5.07511e-05
5.34756e-05
5.73628e-05
5.91486e-05
5.8918e-05
5.57664e-05
4.80669e-05
4.30569e-05
4.13486e-05
4.04314e-05
3.9484e-05
3.90642e-05
3.99774e-05
4.32683e-05
4.89382e-05
5.52102e-05
5.91025e-05
5.96345e-05
5.85657e-05
5.4927e-05
4.98942e-05
4.5143e-05
6.89843e-05
6.70553e-05
6.54925e-05
6.41937e-05
6.26312e-05
6.04057e-05
5.81783e-05
5.65819e-05
5.56342e-05
5.52674e-05
5.4891e-05
5.43791e-05
5.37653e-05
5.31949e-05
5.27513e-05
5.32814e-05
5.38761e-05
5.42537e-05
5.47844e-05
5.38935e-05
5.23538e-05
5.0209e-05
4.83629e-05
4.62994e-05
4.61857e-05
4.79046e-05
5.03391e-05
5.39588e-05
5.79883e-05
6.07705e-05
6.41202e-05
6.7625e-05
6.95278e-05
6.852e-05
5.57635e-05
4.52895e-05
4.11753e-05
4.05978e-05
4.13897e-05
4.4492e-05
5.04033e-05
6.08842e-05
6.79592e-05
6.84687e-05
6.68815e-05
6.31045e-05
6.01119e-05
5.89842e-05
6.00944e-05
6.28305e-05
6.50758e-05
6.59283e-05
6.57055e-05
6.42947e-05
6.10038e-05
5.6274e-05
5.18896e-05
4.69593e-05
4.4119e-05
4.38716e-05
4.46215e-05
4.5977e-05
4.74698e-05
5.00121e-05
5.40176e-05
5.94769e-05
6.53459e-05
6.84456e-05
6.98591e-05
7.05508e-05
7.11033e-05
7.139e-05
7.1365e-05
7.03921e-05
6.736e-05
6.19319e-05
5.6377e-05
5.51876e-05
5.57792e-05
5.7881e-05
6.01423e-05
6.06609e-05
6.00251e-05
5.68802e-05
4.90835e-05
4.31628e-05
4.11831e-05
4.02734e-05
3.97136e-05
3.99414e-05
4.18244e-05
4.62884e-05
5.25555e-05
5.79979e-05
6.08047e-05
6.09245e-05
5.96402e-05
5.6791e-05
5.2093e-05
4.64259e-05
3.18058e-05
4.08671e-05
4.44621e-05
4.52018e-05
4.45417e-05
4.35042e-05
4.30148e-05
4.28819e-05
4.30012e-05
4.32382e-05
4.30782e-05
4.26809e-05
4.23653e-05
4.25313e-05
4.3083e-05
4.4393e-05
4.56649e-05
4.64427e-05
4.73155e-05
4.66325e-05
4.51099e-05
4.28281e-05
4.0702e-05
3.87875e-05
3.87759e-05
4.03014e-05
4.30132e-05
4.72497e-05
5.13774e-05
5.46085e-05
5.8694e-05
6.22234e-05
6.59204e-05
6.88388e-05
6.41688e-05
5.12986e-05
4.59756e-05
4.52284e-05
4.63103e-05
5.0611e-05
5.99474e-05
6.82993e-05
6.98357e-05
6.98734e-05
6.9565e-05
6.88232e-05
6.82373e-05
6.79823e-05
6.82778e-05
6.8909e-05
6.91073e-05
6.90978e-05
6.87848e-05
6.77766e-05
6.55853e-05
6.16187e-05
5.58631e-05
5.13504e-05
4.76058e-05
4.60714e-05
4.63312e-05
4.7705e-05
5.00351e-05
5.32616e-05
5.85238e-05
6.46725e-05
6.86226e-05
7.01858e-05
7.0874e-05
7.11882e-05
7.12296e-05
7.12843e-05
7.15036e-05
7.10966e-05
6.91996e-05
6.57925e-05
6.22344e-05
6.07036e-05
6.0635e-05
6.13717e-05
6.20334e-05
6.2034e-05
6.12303e-05
5.81583e-05
5.10409e-05
4.43578e-05
4.17043e-05
4.07425e-05
4.0577e-05
4.13932e-05
4.44759e-05
4.9961e-05
5.59572e-05
6.06066e-05
6.22797e-05
6.21857e-05
6.09245e-05
5.85921e-05
5.44172e-05
4.81024e-05
1.90388e-05
2.10519e-05
2.27199e-05
2.42143e-05
2.54954e-05
2.65663e-05
2.73292e-05
2.78685e-05
2.84542e-05
2.89688e-05
2.93223e-05
2.98255e-05
3.05841e-05
3.16792e-05
3.2996e-05
3.46092e-05
3.58411e-05
3.65037e-05
3.72539e-05
3.66196e-05
3.54283e-05
3.38742e-05
3.25843e-05
3.20987e-05
3.28102e-05
3.48095e-05
3.77669e-05
4.19017e-05
4.5518e-05
4.85053e-05
5.18183e-05
5.39318e-05
5.76231e-05
6.36665e-05
6.83802e-05
6.41477e-05
5.59882e-05
5.35194e-05
5.5078e-05
6.18373e-05
6.85202e-05
6.84808e-05
6.79451e-05
6.7452e-05
6.77832e-05
6.85364e-05
6.88784e-05
6.91269e-05
6.93842e-05
6.96367e-05
6.98268e-05
7.00182e-05
7.01599e-05
6.99998e-05
6.91615e-05
6.66092e-05
6.1664e-05
5.5782e-05
5.21095e-05
5.03477e-05
5.00909e-05
5.13093e-05
5.36343e-05
5.83873e-05
6.4674e-05
6.87326e-05
7.04203e-05
7.10692e-05
7.11177e-05
7.07867e-05
7.04592e-05
7.05749e-05
7.11097e-05
7.14794e-05
7.0478e-05
6.83442e-05
6.60435e-05
6.4732e-05
6.3973e-05
6.36416e-05
6.36911e-05
6.36869e-05
6.2976e-05
5.98857e-05
5.37669e-05
4.66229e-05
4.31776e-05
4.21496e-05
4.22261e-05
4.38912e-05
4.81706e-05
5.39289e-05
5.92419e-05
6.30305e-05
6.38555e-05
6.36504e-05
6.23794e-05
6.05713e-05
5.67521e-05
5.03286e-05
1.81906e-05
1.83854e-05
1.86387e-05
1.89869e-05
1.93686e-05
1.97798e-05
2.01773e-05
2.05616e-05
2.09247e-05
2.12285e-05
2.15328e-05
2.19491e-05
2.24853e-05
2.32064e-05
2.40687e-05
2.49378e-05
2.54933e-05
2.58725e-05
2.63852e-05
2.64217e-05
2.63945e-05
2.63953e-05
2.67553e-05
2.7737e-05
2.94766e-05
3.17928e-05
3.46536e-05
3.82288e-05
4.0911e-05
4.29138e-05
4.46564e-05
4.5227e-05
4.76809e-05
5.28331e-05
6.131e-05
6.7134e-05
6.81091e-05
6.66075e-05
6.76329e-05
6.78369e-05
6.43988e-05
6.18251e-05
6.0214e-05
5.94396e-05
6.04338e-05
6.24118e-05
6.38812e-05
6.50281e-05
6.56018e-05
6.5945e-05
6.678e-05
6.79472e-05
6.92425e-05
7.01277e-05
7.03135e-05
6.96944e-05
6.71939e-05
6.33952e-05
5.93171e-05
5.61039e-05
5.50605e-05
5.6789e-05
6.0473e-05
6.54361e-05
6.92315e-05
7.03799e-05
7.08353e-05
7.05803e-05
6.99186e-05
6.91504e-05
6.8828e-05
6.92205e-05
7.03242e-05
7.12985e-05
7.12393e-05
7.00367e-05
6.84472e-05
6.7134e-05
6.60722e-05
6.55337e-05
6.58216e-05
6.62082e-05
6.56372e-05
6.25299e-05
5.67469e-05
5.03863e-05
4.59906e-05
4.47425e-05
4.51363e-05
4.77787e-05
5.26246e-05
5.77445e-05
6.28112e-05
6.5354e-05
6.56839e-05
6.54192e-05
6.41675e-05
6.27234e-05
5.87242e-05
5.32673e-05
1.81431e-05
1.81572e-05
1.81832e-05
1.82287e-05
1.82912e-05
1.83722e-05
1.84558e-05
1.8545e-05
1.86422e-05
1.87452e-05
1.88693e-05
1.90371e-05
1.92465e-05
1.95078e-05
1.98079e-05
2.00871e-05
2.03146e-05
2.05849e-05
2.0984e-05
2.14692e-05
2.21936e-05
2.31062e-05
2.44466e-05
2.62467e-05
2.83471e-05
3.05661e-05
3.30093e-05
3.57518e-05
3.74549e-05
3.85081e-05
3.90911e-05
3.89966e-05
4.00738e-05
4.24515e-05
4.682e-05
5.21594e-05
5.80995e-05
6.11119e-05
5.97812e-05
5.42941e-05
5.22e-05
5.12157e-05
5.04005e-05
5.05809e-05
5.21727e-05
5.43138e-05
5.59209e-05
5.69987e-05
5.7674e-05
5.86429e-05
6.07332e-05
6.30311e-05
6.52808e-05
6.72736e-05
6.88687e-05
6.98851e-05
6.9845e-05
6.90468e-05
6.72649e-05
6.51203e-05
6.41129e-05
6.55165e-05
6.78712e-05
6.95902e-05
6.98275e-05
6.98261e-05
6.90497e-05
6.81902e-05
6.70816e-05
6.65274e-05
6.65805e-05
6.74068e-05
6.88709e-05
7.04841e-05
7.13539e-05
7.10373e-05
7.00505e-05
6.89714e-05
6.8016e-05
6.79588e-05
6.86479e-05
6.91028e-05
6.86486e-05
6.61691e-05
6.09204e-05
5.46589e-05
5.05262e-05
4.90606e-05
4.97408e-05
5.26904e-05
5.70149e-05
6.22232e-05
6.61118e-05
6.75889e-05
6.76607e-05
6.7362e-05
6.62823e-05
6.51741e-05
6.07174e-05
5.6457e-05
1.81404e-05
1.81413e-05
1.81436e-05
1.81483e-05
1.81561e-05
1.81677e-05
1.81809e-05
1.8196e-05
1.82138e-05
1.82362e-05
1.82679e-05
1.83131e-05
1.8374e-05
1.84565e-05
1.85573e-05
1.86601e-05
1.87812e-05
1.899e-05
1.93666e-05
1.99683e-05
2.09745e-05
2.24027e-05
2.42203e-05
2.62783e-05
2.83435e-05
3.03317e-05
3.21903e-05
3.38603e-05
3.48869e-05
3.55302e-05
3.6036e-05
3.64029e-05
3.70394e-05
3.7961e-05
3.93553e-05
4.0706e-05
4.23113e-05
4.38356e-05
4.43482e-05
4.45419e-05
4.52379e-05
4.50012e-05
4.50435e-05
4.57306e-05
4.72104e-05
4.88083e-05
5.01047e-05
5.11908e-05