/*--------------------------------*- C++ -*----------------------------------*\
| =========                 |                                                 |
| \\      /  F ield         | OpenFOAM: The Open Source CFD Toolbox           |
|  \\    /   O peration     | Version:  2.3.0                                 |
|   \\  /    A nd           | Web:      www.OpenFOAM.org                      |
|    \\/     M anipulation  |                                                 |
\*---------------------------------------------------------------------------*/
FoamFile
{
    version     2.0;
    format      ascii;
    class       volVectorField;
    location    "0.04";
    object      U;
}
// * * * * * * * * * * * * * * * * * * * * * * * * * * * * * * * * * * * * * //

dimensions      [0 1 -1 0 0 0 0];

internalField   nonuniform List<vector> 
5000
(
(52.4261 -1.55908 -1.15997)
(54.2178 -0.440223 -0.932147)
(53.8536 -0.0232545 -0.701191)
(53.0662 0.279185 -0.36951)
(51.5127 0.335849 0.0462017)
(49.6696 0.017558 0.190755)
(48.6198 -0.315352 -0.165127)
(48.07 -0.336875 -0.679235)
(48.1148 -0.292218 -1.22769)
(48.4658 -0.283746 -1.06844)
(48.6904 -0.212707 -0.540619)
(49.0818 -0.198961 -0.2237)
(49.6195 -0.188086 0.0375892)
(50.5672 -0.066757 0.563336)
(50.5916 0.0776718 0.735603)
(50.0494 0.189275 0.871511)
(48.7541 0.431141 0.94128)
(46.1354 0.622546 0.923408)
(43.6373 0.338989 0.80495)
(43.3896 -0.0159085 0.733903)
(43.5793 -0.0653698 0.680292)
(44.1859 -0.200615 0.573055)
(46.0152 -0.376555 0.426336)
(49.7276 -0.669754 0.249359)
(53.4369 -0.284988 -0.00659787)
(54.1594 -0.174291 -0.124108)
(54.1389 0.0377647 -0.043422)
(53.2224 0.201939 0.101719)
(51.0095 0.314437 -0.199071)
(49.166 0.302008 -0.995827)
(48.9943 0.0639459 -1.22602)
(49.2978 -0.00264965 -1.35232)
(49.9194 -0.175666 -1.42206)
(51.7686 -0.133273 -1.34187)
(54.0608 0.223734 -1.14641)
(53.9741 0.330145 -1.10153)
(53.1407 0.431365 -0.965843)
(50.9158 0.700942 -0.679046)
(46.0228 0.70359 -0.581921)
(41.2983 0.154184 -0.953045)
(40.8871 -0.0148434 -1.08974)
(41.1155 0.072545 -1.16786)
(41.8257 -0.105658 -1.29673)
(43.3461 -0.160726 -1.56809)
(45.5304 -0.155769 -1.96688)
(48.0814 -0.0691979 -2.26091)
(50.7909 -0.0736591 -2.23745)
(53.7284 -0.0475076 -1.86692)
(56.9537 -0.083729 -1.22227)
(57.738 0.101357 -0.922162)
(57.0715 0.361122 -0.938163)
(54.7261 0.556639 -0.970364)
(50.4353 0.486116 -0.0725959)
(48.4732 0.0102099 0.912888)
(48.5421 0.0134994 1.03222)
(48.2838 0.158928 1.17072)
(48.2721 0.0473467 1.31329)
(48.8164 0.036323 1.42766)
(49.8709 0.177429 1.40945)
(51.5539 0.132068 0.882799)
(51.9051 0.203224 0.539084)
(51.4871 0.208711 0.406506)
(49.9198 0.396327 0.239818)
(46.1198 0.482494 0.391814)
(43.1936 0.229587 0.887315)
(42.3336 0.00402282 1.10449)
(42.4025 -0.0212823 1.14675)
(42.9015 -0.117846 1.2026)
(44.1974 -0.186126 1.2926)
(45.825 0.160619 1.39399)
(47.5336 -0.0891992 1.50095)
(50.0143 -0.152677 1.48858)
(53.3036 -0.118813 1.17626)
(56.2121 -0.0886382 0.648001)
(56.4699 -0.0350038 0.474808)
(55.0268 0.19455 0.419199)
(50.5182 0.436429 0.399585)
(44.5534 0.338545 0.315717)
(42.0881 0.0765697 0.310549)
(41.9779 -0.0260636 0.366941)
(42.0706 -0.017065 0.445361)
(42.5513 -0.0842768 0.626307)
(44.281 -0.176952 1.01772)
(47.1876 -0.209161 1.24727)
(50.4542 -0.101343 0.817333)
(51.2154 0.00799874 0.476138)
(50.6479 0.155026 0.410494)
(47.6644 0.374715 0.324936)
(41.3913 0.331657 0.240999)
(37.4162 0.136175 0.0871631)
(36.9999 0.00889192 0.0369454)
(37.1821 0.0132802 -0.0261161)
(37.9347 -0.0823528 -0.190248)
(39.3007 -0.0977799 -0.405061)
(41.066 -0.253664 -0.471365)
(42.9867 -0.102556 -0.323779)
(45.3489 -0.179325 -0.0864404)
(48.147 0.3627 0.659865)
(51.796 -0.0890619 1.79028)
(57.3484 0.331095 1.51274)
(54.6462 2.03936 -1.40569)
(53.6567 0.682363 -2.28731)
(53.103 0.176308 -2.49437)
(53.7166 0.191037 -1.88714)
(53.9532 0.44984 -0.904572)
(53.355 0.614608 -0.196933)
(51.5005 0.64827 1.11852)
(49.1409 0.345398 1.48358)
(47.4585 0.0589615 0.226717)
(46.2306 0.132627 -0.711225)
(45.754 0.206005 -1.05938)
(45.9275 0.0473646 -1.11226)
(46.5049 -0.0312569 -1.11301)
(48.092 -0.116991 -1.02524)
(48.9262 0.232545 -0.919163)
(48.6366 0.390175 -0.854471)
(47.8249 0.712114 -0.693985)
(45.9594 0.72263 -0.536197)
(43.9575 0.399095 -0.463076)
(43.8306 -0.07653 -0.479945)
(44.1109 -0.223371 -0.514331)
(44.7939 -0.662006 -0.5808)
(46.8442 -1.27596 -0.693063)
(50.9748 -1.83964 -0.658131)
(54.7586 -0.769712 -0.27173)
(54.9697 -0.166413 -0.193564)
(54.631 0.212354 -0.199937)
(53.1714 0.624708 -0.278433)
(50.5891 0.61794 -0.00494918)
(48.2725 0.108999 0.42174)
(47.7426 -0.25146 0.25501)
(47.8095 -0.222634 0.16341)
(47.8903 -0.360014 0.00659045)
(48.7789 -0.866317 -0.167275)
(51.4657 -1.02758 -0.297051)
(52.5037 -0.113988 -0.383088)
(52.0155 0.129191 -0.358003)
(50.5505 0.738206 -0.143543)
(47.0095 1.41079 0.139268)
(41.8613 1.06491 -0.186719)
(39.6179 0.0845539 -0.804784)
(39.6349 -0.156061 -0.863053)
(39.9552 -0.344441 -0.900804)
(40.776 -0.613555 -1.0111)
(42.4511 -0.855909 -1.28026)
(44.8158 -1.11108 -1.69058)
(47.5388 -1.22953 -1.8625)
(50.6345 -1.24863 -1.84475)
(54.5456 -0.865319 -1.48172)
(57.5794 -0.190052 -0.949575)
(57.6781 0.200643 -0.87904)
(56.7764 0.596887 -0.922374)
(54.2475 0.614217 -0.682945)
(50.7419 0.372295 0.112007)
(48.4385 -0.0131757 0.919203)
(47.4415 -0.0824977 1.12926)
(46.9823 -0.179352 1.14491)
(47.3246 -0.392132 1.16498)
(48.3398 -0.661861 1.26811)
(50.2915 -0.645984 1.10111)
(51.6991 -0.260168 0.384339)
(51.576 0.0583326 0.197605)
(50.2428 0.457287 0.0309599)
(47.4357 0.579534 0.408169)
(45.2024 0.346026 1.04837)
(43.3852 0.243408 1.37955)
(42.6765 -0.0383943 1.44577)
(42.7085 -0.112037 1.41441)
(43.0683 -0.226993 1.36097)
(43.9834 -0.560656 1.47562)
(45.5212 -0.607789 1.64368)
(47.9645 -0.805115 1.72386)
(51.7681 -0.975401 1.53646)
(56.2163 -0.46898 0.984103)
(57.3771 0.29035 0.667806)
(56.2573 0.76385 0.646899)
(52.0427 1.14501 0.952519)
(46.0067 0.846396 1.24264)
(43.0298 0.330634 1.12675)
(42.6986 -0.009487 1.11653)
(42.7073 -0.0106485 1.14071)
(43.0996 -0.215765 1.31788)
(44.7046 -0.463533 1.98143)
(47.4625 -0.66069 2.78697)
(51.1193 -0.482161 1.89433)
(52.5175 -0.0334361 0.572005)
(52.0438 0.330008 0.397898)
(49.4687 0.831908 0.253264)
(43.714 1.0794 0.0975368)
(38.4733 0.48564 -0.0765186)
(36.9126 0.0815753 -0.229461)
(36.9108 -0.0796528 -0.26858)
(37.4344 -0.0722645 -0.364328)
(38.7343 -0.169581 -0.52451)
(40.4342 0.0506712 -0.648769)
(42.3272 -0.289125 -0.436206)
(44.5774 -0.335824 -0.238147)
(47.1212 -0.884014 0.326012)
(49.9695 -0.855439 1.18677)
(54.8547 -0.795901 1.38094)
(54.7335 1.30861 -0.970244)
(58.2885 0.0362249 -1.23634)
(56.9544 -0.334751 -1.59172)
(54.7216 -0.574956 -1.67115)
(53.1056 -0.330479 -1.29708)
(51.8462 0.12776 -0.783415)
(50.479 0.600446 -0.719047)
(48.9263 0.72979 0.195771)
(47.9688 0.575769 1.35636)
(47.3672 0.184658 1.73604)
(46.874 -0.2615 1.33867)
(46.9627 -0.472053 1.19901)
(47.4264 -0.837987 1.16747)
(48.5887 -1.05143 0.64199)
(49.4271 -0.0755855 -0.321833)
(49.3171 0.326379 -0.552017)
(48.8603 0.949932 -0.769242)
(47.697 1.37307 -0.859702)
(46.0166 0.830806 -0.928199)
(45.4862 -0.196289 -0.951378)
(45.6431 -0.371662 -0.916255)
(46.1791 -0.951099 -0.726752)
(47.8447 -1.84574 -0.470868)
(51.5671 -2.40737 -0.311171)
(55.9919 -1.27598 -0.176528)
(56.3814 -0.222701 -0.0332982)
(55.918 0.511005 0.361903)
(54.0423 1.22667 1.26677)
(50.7613 1.4578 2.05654)
(47.6075 1.0905 0.415787)
(46.3575 0.158532 -0.99477)
(46.4567 0.072141 -1.10272)
(46.8704 -0.37051 -1.08979)
(48.652 -0.857056 -0.972164)
(51.9891 -0.577644 -0.843136)
(52.4124 0.267117 -0.795029)
(51.7364 0.733783 -0.697455)
(49.8881 1.53964 -0.482964)
(45.8721 2.17949 -0.309712)
(41.1481 1.65266 -0.111898)
(39.2612 0.56651 0.0263766)
(39.1566 -0.0855645 0.0405545)
(39.4732 -0.187161 0.0362763)
(40.4473 -0.434919 -0.0237896)
(42.2169 -0.676134 -0.17417)
(44.492 -0.705484 -0.35883)
(47.0472 -0.751119 -0.35383)
(49.9458 -1.47286 -0.12743)
(53.9603 -2.06599 0.108519)
(58.2904 -1.27679 0.0771537)
(58.6504 0.0924493 0.00197816)
(57.8674 0.81188 0.00918467)
(55.0216 1.54258 0.24969)
(50.6704 1.37656 0.63754)
(47.4847 0.841272 0.536511)
(45.7673 0.473852 0.11348)
(45.5609 0.120154 -0.0651419)
(46.0524 -0.0472867 -0.182009)
(47.4688 -0.359084 -0.312944)
(50.1803 -0.456892 -0.340362)
(52.1785 -0.0512694 -0.269358)
(52.1427 0.35683 -0.281986)
(50.949 0.963131 -0.285983)
(47.982 1.16392 0.229538)
(45.4836 0.759857 0.766484)
(43.1853 0.510439 0.808772)
(41.856 0.130508 0.57279)
(41.6866 -0.0543258 0.458405)
(42.0202 -0.140598 0.416402)
(42.9114 -0.069217 0.508816)
(44.338 -0.232309 0.789504)
(46.8886 -0.686315 1.05418)
(51.0457 -1.6112 1.22745)
(57.0827 -1.66332 0.993717)
(60.5568 -0.960117 0.426485)
(59.5246 0.702568 0.346893)
(55.1031 1.82164 0.831979)
(48.2043 1.6024 1.98866)
(44.1428 0.567334 2.49482)
(43.2255 0.0143545 2.30319)
(43.1836 0.0672462 2.25147)
(43.5221 -0.214447 2.32829)
(45.0013 -0.613527 2.9536)
(47.9538 -0.997496 4.24804)
(52.456 -0.911611 3.21068)
(54.4779 -0.241923 0.876031)
(53.9714 0.378059 0.526656)
(51.3196 1.21851 0.35813)
(45.718 1.53411 0.27994)
(39.9658 1.08966 0.000176687)
(37.2079 0.406369 -0.229004)
(36.8767 0.141503 -0.27164)
(37.1242 -0.0804775 -0.281355)
(37.905 -0.243044 -0.2388)
(39.5626 -0.51645 -0.0721739)
(41.9282 -0.393559 0.157559)
(44.8403 -0.409245 0.25481)
(47.7309 -0.0421213 0.286569)
(50.1747 -0.341365 0.374989)
(54.3553 -0.142063 0.355972)
(56.1306 -3.74296 0.997501)
(58.4233 -0.350256 1.25888)
(57.6258 1.56394 1.93505)
(56.673 1.97626 2.48832)
(55.6526 1.616 2.34105)
(54.3016 1.33073 1.18169)
(52.5639 1.24592 0.795005)
(51.0877 0.793831 0.797476)
(50.1667 0.246566 0.75587)
(49.422 0.326549 1.36519)
(48.6197 0.491983 1.42174)
(48.0538 0.0131665 0.166359)
(48.085 -0.15783 -0.174045)
(48.6161 -0.345042 -0.283493)
(49.1106 0.148359 -0.0829912)
(48.8879 0.503763 0.0327261)
(48.22 0.984381 0.194463)
(46.998 1.23808 0.285827)
(45.003 1.07992 0.372191)
(43.9202 -0.000337021 0.513694)
(44.0199 -0.385265 0.576403)
(44.555 -1.26609 0.799044)
(46.3591 -2.63499 1.15298)
(50.3993 -4.16935 1.51228)
(55.093 -2.17691 0.705779)
(55.9214 -0.0405798 0.347376)
(55.5557 0.886498 0.382523)
(54.0158 1.9562 0.559852)
(50.6314 2.249 0.230186)
(46.9296 1.39585 -0.21686)
(45.3686 -0.00693827 -0.0655474)
(45.4929 -0.283211 0.000393509)
(46.0038 -0.896599 0.127922)
(47.644 -1.9357 0.321632)
(50.9737 -1.94182 0.326244)
(52.2339 0.0447963 0.0839932)
(51.8061 0.646681 0.0118979)
(50.1205 1.89865 -0.0488157)
(45.6057 3.20239 -0.0147324)
(40.4712 2.24619 -0.045991)
(39.0274 0.605944 -0.10253)
(39.1179 -0.0784313 -0.133266)
(39.616 -0.426418 -0.188336)
(40.8302 -0.911802 -0.229907)
(42.7446 -1.16668 -0.151913)
(45.2122 -1.18352 0.10824)
(48.0835 -0.959357 0.628641)
(51.386 -1.29786 1.21441)
(55.2215 -2.1666 1.53104)
(59.8319 -2.59548 1.16569)
(62.3953 -1.4561 0.605765)
(61.4198 -0.0931177 0.58015)
(56.7688 1.50767 0.829399)
(50.1181 1.44377 0.483268)
(47.1579 0.658575 -0.288081)
(46.3605 0.508769 -0.460814)
(46.1577 0.0336529 -0.307261)
(46.6635 -0.269324 -0.0118308)
(48.1756 -0.902023 0.695844)
(50.6877 -1.3242 1.01103)
(53.0991 -0.966844 0.463727)
(53.401 -0.157382 0.217318)
(52.2359 0.69967 0.181759)
(48.9421 1.21925 0.212932)
(45.9179 0.993479 -0.0480446)
(43.1818 1.12571 -0.368233)
(41.0693 0.535866 -0.505618)
(40.548 0.236154 -0.496143)
(40.8671 0.117258 -0.46839)
(41.8062 0.0150137 -0.26568)
(43.5509 0.08511 0.02464)
(46.4077 -0.171235 0.331648)
(50.7092 -1.32479 0.721131)
(56.6207 -2.13632 0.797978)
(63.1478 -2.00006 0.213485)
(63.6111 -0.560371 -0.131868)
(60.0469 1.37657 -0.192905)
(50.5698 1.88868 1.40648)
(44.0987 1.00098 2.98239)
(42.8985 0.279038 3.12078)
(42.79 0.283736 3.0634)
(43.0821 -0.0735169 3.07287)
(44.5162 -0.613905 3.46201)
(47.5269 -1.48713 4.59811)
(52.68 -1.60272 4.09356)
(56.0682 -0.687393 1.51522)
(55.7346 0.164377 0.977994)
(53.0559 1.50463 0.468618)
(46.8872 2.28397 0.0193364)
(40.3498 1.72012 -0.25406)
(37.1243 0.747317 -0.305065)
(36.7454 0.213778 -0.287492)
(36.9586 0.131265 -0.228071)
(37.7126 -0.12896 -0.0867463)
(39.3501 -0.247995 0.113705)
(41.6994 -0.613108 0.309374)
(44.7004 -0.851385 0.315215)
(47.8981 -1.13015 0.284637)
(50.9236 -1.08701 0.645213)
(55.5141 -0.925402 0.514907)
(52.3087 1.2843 3.35188)
(53.0314 0.529009 2.84973)
(51.5342 0.353926 2.07716)
(49.9719 -0.00477735 0.548001)
(49.9115 -0.00134435 0.482708)
(49.9366 0.556207 0.761388)
(49.7381 0.930896 1.05074)
(49.4223 0.81725 1.67356)
(48.9449 0.603505 2.25364)
(48.4578 0.479435 2.27477)
(47.9274 0.142187 1.45299)
(47.8932 -0.192755 0.931673)
(48.2147 -0.751036 0.391269)
(49.2124 -1.24976 0.0619932)
(50.544 -0.062129 -0.432838)
(50.5394 0.581493 -0.512743)
(49.9504 1.39971 -0.574746)
(48.3865 2.11046 -0.622424)
(45.5832 1.67391 -0.115339)
(43.1931 0.105307 0.646036)
(43.0715 -0.523453 0.782444)
(43.5916 -1.56894 0.827189)
(45.4932 -3.39466 0.759268)
(49.5569 -4.53449 0.891514)
(54.5451 -2.857 0.826124)
(55.7913 -0.316455 0.668902)
(55.4273 0.928107 0.576979)
(53.6225 2.51117 0.422599)
(49.9129 3.20873 0.378188)
(45.9556 2.43675 0.697932)
(44.6284 0.412767 0.710124)
(44.81 -0.0746378 0.618201)
(45.6579 -1.00892 0.188035)
(48.1169 -2.21955 -0.752708)
(52.3403 -2.13916 -0.360013)
(53.5623 0.296725 0.467871)
(53.0172 1.10034 0.553575)
(50.9816 2.8641 0.581259)
(46.2918 4.23321 0.460913)
(41.4568 2.8729 0.0803412)
(39.5963 0.652443 -0.210251)
(39.495 -0.194324 -0.257791)
(39.9887 -0.319335 -0.251827)
(41.0553 -0.67211 -0.1739)
(42.8353 -0.82903 -0.0243906)
(45.3524 -0.718845 0.180485)
(48.4418 -0.421022 0.458211)
(51.9524 -0.714951 0.694242)
(56.1037 -1.58708 0.770605)
(60.9283 -1.77239 0.798666)
(65.6176 -1.81483 0.878404)
(65.5626 -1.25455 0.956884)
(60.3201 1.40303 0.872149)
(49.8107 1.82253 -0.306225)
(46.4419 0.589922 -0.441373)
(45.5559 0.594303 0.188717)
(45.4721 0.331242 0.483386)
(46.2412 0.120242 0.865823)
(48.1719 -0.155041 1.26208)
(50.9852 -0.573216 1.26455)
(53.708 -0.315518 1.19761)
(54.0462 -0.0314119 1.17414)
(52.958 0.837609 1.15632)
(48.9151 1.53904 0.720345)
(45.1168 1.16442 0.0906046)
(42.0833 1.7564 -0.106819)
(39.9905 1.12011 -0.0733658)
(39.4519 0.805518 -0.0580036)
(39.8228 0.668219 -0.0668457)
(40.9083 0.574188 -0.0922933)
(42.9422 0.212793 -0.137359)
(46.2217 -0.372684 -0.280791)
(50.7496 -1.74266 -0.389253)
(56.6301 -2.69759 -0.0447468)
(63.6747 -3.24624 0.0397374)
(67.306 -1.22184 -0.218865)
(65.6409 0.61482 -0.284629)
(56.524 2.80932 0.564224)
(45.0025 0.682355 1.85948)
(42.6 0.181994 1.95558)
(42.4053 0.361601 1.90196)
(42.729 -0.0361375 1.86529)
(44.0924 -0.547589 2.04075)
(46.9713 -1.66112 2.78737)
(52.177 -2.10314 3.15043)
(57.1994 -1.0716 1.63562)
(57.2222 -0.16209 1.19435)
(54.8945 1.52806 0.731152)
(48.2222 2.73606 0.121965)
(40.7033 2.35634 -0.103806)
(36.9636 1.15309 -0.0462421)
(36.5277 0.371986 -0.0147383)
(36.7502 0.146971 -0.00102699)
(37.4981 -0.193119 0.0156508)
(39.2108 -0.618926 0.0352486)
(41.8069 -0.792047 0.0175674)
(45.0571 -0.855854 -0.2911)
(48.4 -0.628 -0.535509)
(51.5505 -0.694261 -0.681018)
(56.4823 -0.581909 -0.550249)
(49.7891 1.21857 0.331348)
(55.0576 1.41682 2.80248)
(57.1008 2.3647 1.43905)
(56.4679 2.03066 0.356355)
(54.6166 1.26173 -0.719625)
(52.604 0.971202 -0.354029)
(51.5392 0.820467 -0.123295)
(51.0761 0.652751 -0.109295)
(50.7878 0.360044 -0.359748)
(50.3449 0.499666 -0.621753)
(49.419 0.60563 -1.04293)
(48.0543 0.0267161 0.129239)
(47.9575 -0.417776 0.665866)
(48.2868 -0.803818 1.09906)
(49.3613 -0.354523 0.891167)
(49.7133 0.805124 0.4337)
(49.394 1.55306 0.231812)
(48.2599 2.6469 0.120103)
(45.8474 2.9698 0.331664)
(43.3245 1.09088 0.268631)
(42.7681 -0.464539 0.0393783)
(43.1938 -1.85538 -0.370576)
(45.3756 -4.29053 -1.53849)
(49.7229 -7.59844 -3.06125)
(55.4107 -4.8506 -1.35514)
(56.7503 -0.147669 -0.259347)
(56.2435 1.51039 -0.0471146)
(54.0237 3.56832 0.167125)
(50.0794 4.28988 0.350008)
(46.0869 2.85397 0.178052)
(44.565 0.273281 -0.303527)
(44.8181 -0.442382 -0.677348)
(45.8386 -1.67074 -1.73256)
(48.7502 -3.77547 -3.43084)
(54.011 -3.84789 -2.89678)
(56.0294 -0.0999008 -1.31505)
(55.3489 1.25493 -0.946423)
(52.864 3.44877 -0.322926)
(47.9504 5.2996 0.0379318)
(43.4016 3.52306 -0.0362198)
(40.071 1.30943 0.11367)
(38.9687 0.0659438 0.245566)
(39.2429 -0.136532 0.298227)
(40.0667 -0.663878 0.408106)
(42.0132 -1.02659 0.538837)
(44.9964 -1.17608 0.66817)
(48.646 -0.996379 0.698487)
(52.5738 -1.12801 0.637807)
(56.8334 -1.81318 0.603154)
(61.7572 -2.32839 0.627324)
(66.9646 -1.76643 0.530374)
(68.0437 -1.49486 0.414449)
(65.2631 0.603167 0.0609247)
(54.2587 1.85606 -0.147869)
(47.1874 -0.750135 0.820795)
(45.6886 0.427237 1.00934)
(45.4734 0.307859 0.854998)
(46.2442 -0.222072 0.349172)
(48.342 -0.759705 -1.21957)
(51.2559 -1.07974 -2.10024)
(54.2455 -0.517541 -1.22454)
(54.8609 -0.0231739 -0.580222)
(53.7178 0.693082 -0.305982)
(48.9897 1.77476 -0.150018)
(44.0048 1.55638 -0.204691)
(40.6915 2.49917 -0.206918)
(38.8667 1.72856 -0.192035)
(38.4211 1.29458 -0.214001)
(38.8591 1.00085 -0.248139)
(40.1444 0.616161 -0.335198)
(42.4717 0.202008 -0.410722)
(46.1273 -0.418088 -0.453554)
(51.2188 -1.75048 -0.384617)
(57.6928 -2.76538 -0.184845)
(64.5832 -3.0325 -0.0663907)
(69.6078 -2.19598 -0.121359)
(68.5653 -0.558205 -0.149944)
(64.1781 2.4377 0.0405482)
(50.8195 2.02249 0.996801)
(43.1416 -0.288038 1.54479)
(42.1504 0.579041 1.58557)
(42.3907 0.0359168 1.57716)
(43.8077 -0.479261 1.61087)
(46.8256 -1.74141 2.0255)
(51.9519 -2.65525 2.46294)
(58.2634 -1.69193 1.64898)
(59.2107 -0.322382 1.05728)
(57.1823 1.46824 0.826548)
(49.8028 3.71821 0.359744)
(41.084 2.80259 0.0387745)
(36.9543 1.60841 -0.0502823)
(36.4839 0.527689 -0.0577934)
(36.6897 0.393884 -0.0478412)
(37.4428 0.00433343 0.0108348)
(39.1544 -0.391241 0.0958107)
(41.6762 -0.917163 0.133376)
(44.9304 -1.29445 -0.0704454)
(48.5117 -1.47684 -0.217489)
(52.1024 -1.43224 -0.0717962)
(57.5015 -1.21709 -0.00558027)
(46.9396 -3.33315 -0.559224)
(49.0487 -2.21857 0.878903)
(48.9909 -0.429753 1.43146)
(48.9459 0.941006 1.04509)
(48.7487 1.2581 0.835847)
(48.4965 1.16008 0.728427)
(48.4148 0.657798 0.581865)
(48.6267 0.249224 0.771886)
(49.0514 0.129017 0.546924)
(49.1 0.688789 0.176434)
(48.7771 1.00139 0.0387507)
(48.2492 0.374811 0.64552)
(48.1979 -0.625734 0.922236)
(48.6055 -1.61727 0.978918)
(49.3413 -0.720471 1.57752)
(49.3673 0.549791 1.74593)
(48.8814 1.72058 1.88001)
(47.4835 2.95285 1.77019)
(44.9007 3.11207 1.41994)
(42.5599 1.30356 0.227296)
(42.0831 -0.0504513 -0.402028)
(42.5155 -1.17607 -0.754554)
(45.1172 -3.64646 -1.55383)
(50.0216 -8.70037 -2.07385)
(58.1458 -8.85506 -1.17325)
(60.6853 -2.24185 -0.599959)
(59.0707 1.53176 -0.370258)
(55.2563 4.50198 -0.207527)
(50.4302 5.4441 -0.0162395)
(46.1588 3.77409 -0.0923528)
(44.6289 0.802445 -0.576953)
(44.8552 0.0130029 -0.855529)
(46.2214 -0.98016 -1.25393)
(49.6526 -4.04566 -1.46404)
(55.1229 -5.70213 -1.54735)
(59.1164 -1.37815 -1.20135)
(58.4517 1.63292 -1.04594)
(55.1957 4.8946 -0.620338)
(49.5622 6.46982 -0.325712)
(44.4814 4.54031 -0.0821568)
(39.9957 2.35108 0.410837)
(38.3545 0.669818 0.710435)
(38.5524 0.431758 0.747954)
(39.4371 -0.18482 0.768497)
(41.6437 -0.705801 0.719799)
(45.0441 -0.990834 0.592989)
(49.1124 -0.767427 0.383053)
(53.3607 -0.924612 0.351624)
(57.9238 -1.42926 0.586055)
(62.9314 -1.5647 0.788563)
(67.9171 -1.37802 0.499248)
(69.5382 -1.41533 0.124865)
(68.3947 0.31371 0.0195739)
(61.3236 2.46944 0.206491)
(48.9952 0.409087 0.569708)
(45.647 -0.493363 0.481004)
(45.3504 0.715644 0.410963)
(46.1586 0.0793302 0.473975)
(48.5103 -0.172131 1.16853)
(51.4059 -0.348217 1.63642)
(54.4997 0.09943 0.913715)
(55.5758 0.686328 0.3361)
(54.3639 1.24057 0.182974)
(49.0736 2.4394 -0.0865878)
(42.8687 2.03057 -0.316572)
(39.4203 2.97925 -0.169602)
(38.036 2.1817 -0.0212178)
(37.7096 1.83852 -0.0137706)
(38.1271 1.51607 -0.0517824)
(39.357 1.0333 -0.216636)
(41.613 0.264898 -0.332809)
(45.1064 -0.707185 -0.314732)
(49.9879 -2.46798 -0.23371)
(57.1402 -3.87006 -0.153933)
(63.4895 -4.61587 0.0414308)
(68.4259 -2.42164 0.00838896)
(68.1415 -0.746285 -0.023708)
(66.2585 1.14921 -0.0213774)
(58.8296 2.03339 0.324313)
(45.6657 -0.317294 1.09448)
(42.5108 0.370375 1.27137)
(42.658 0.0228595 1.25528)
(44.0078 -0.524804 1.24021)
(47.0513 -1.75932 1.29623)
(52.1988 -2.97148 1.45537)
(59.1409 -1.91906 1.19127)
(61.1332 -0.703959 0.793332)
(59.348 1.18843 0.664527)
(52.0325 4.5059 0.353831)
(41.9773 3.32856 0.0565045)
(37.0697 2.08085 -0.00302064)
(36.4062 0.65494 0.00547727)
(36.603 0.462265 0.0103748)
(37.3296 0.00969423 0.0218409)
(39.0815 -0.55644 0.0415127)
(41.7499 -0.96124 0.0336192)
(45.182 -1.17452 -0.146783)
(48.8914 -1.13035 -0.281549)
(52.589 -1.14152 -0.442369)
(58.1393 -1.00673 -0.335198)
(52.4809 2.05934 0.147945)
(52.6916 1.94805 0.495477)
(51.294 1.89701 -0.0079353)
(50.1003 1.64049 -0.270112)
(49.1434 1.31332 -0.864462)
(47.8145 0.998707 -0.153983)
(46.8837 0.411169 1.18767)
(46.5755 0.0683243 1.9774)
(46.6713 -0.0826148 2.46105)
(46.9707 0.374036 2.4523)
(47.0903 0.734961 1.3521)
(47.1232 0.45753 0.780135)
(47.3766 -0.298958 0.346155)
(47.8918 -0.674427 -0.0314991)
(49.3272 -0.0557277 -0.349097)
(49.535 0.787489 -0.444889)
(48.7009 1.97681 -0.323359)
(46.9371 3.9171 0.0586983)
(44.4087 4.69466 0.164615)
(42.1516 2.16991 -0.417822)
(41.808 0.846391 -0.728428)
(42.1631 0.566179 -0.9452)
(44.782 -0.672314 -1.22544)
(49.8304 -8.38316 -1.06812)
(58.5383 -13.3457 -0.774444)
(70.5614 -7.35032 -0.566726)
(69.4943 -0.758465 -0.693705)
(59.9023 6.14519 0.118793)
(50.8097 6.42623 0.934511)
(46.2446 3.75545 -0.225363)
(44.8226 1.05177 -1.56834)
(44.9908 0.12987 -1.86597)
(46.7679 -0.689382 -1.89633)
(50.7989 -3.10002 -1.20951)
(56.0287 -5.0149 -0.480627)
(62.7165 -3.85964 -0.453148)
(63.0952 -0.527358 -0.611211)
(59.1006 4.70926 -0.667837)
(50.8477 7.8784 -0.437946)
(44.5537 5.64584 -0.0960744)
(39.633 3.59781 0.0543243)
(37.7122 1.27764 0.0628557)
(37.8924 0.900617 0.0658921)
(38.8081 0.0795015 0.0851349)
(41.2155 -0.841056 0.119335)
(45.0114 -1.5441 0.0742382)
(49.6689 -1.44895 0.0377653)
(54.4488 -1.52018 0.193479)
(59.396 -2.2128 0.562898)
(64.6505 -2.17553 0.79449)
(69.4835 -1.21447 0.559645)
(71.1779 -0.801281 0.319178)
(70.3816 -0.0724546 0.252946)
(67.3982 0.320667 0.221547)
(56.3491 -0.405207 0.262383)
(46.4442 -1.55912 0.401704)
(45.9121 0.262165 0.447047)
(46.7396 -0.231698 0.459152)
(49.347 -0.577364 0.420941)
(52.403 -0.712336 0.455721)
(55.3035 0.0611098 0.53729)
(56.4288 0.897903 0.519403)
(55.1289 1.1862 0.459219)
(49.5568 2.93169 0.180175)
(42.4214 2.7436 -0.0131403)
(38.5464 3.5121 0.0848929)
(37.2937 2.6077 0.0937998)
(36.9691 2.31516 0.00726333)
(37.3251 1.98186 -0.0563274)
(38.4747 1.40335 -0.109569)
(40.6365 0.594157 0.0769545)
(43.8925 -0.453869 0.436934)
(48.4822 -3.16207 0.782021)
(55.8828 -4.61034 0.671302)
(60.7998 -5.12158 0.729443)
(64.3742 -3.05877 0.264593)
(64.3754 -0.79349 0.108954)
(63.5676 0.763147 0.0377587)
(58.7838 1.99633 0.177414)
(47.3627 0.958963 0.703505)
(42.9011 -0.125091 0.875414)
(42.9793 0.0513189 0.866776)
(44.1518 -0.490464 0.894802)
(47.1099 -1.94947 0.927346)
(52.426 -3.37352 0.997985)
(59.5825 -2.40676 0.885261)
(62.302 -0.742355 0.636951)
(60.7736 1.0136 0.556745)
(54.2153 5.28979 0.37211)
(43.4424 3.99688 0.0978598)
(37.3346 2.48577 -0.0667874)
(36.3763 0.861099 -0.121935)
(36.5531 0.725864 -0.138426)
(37.2273 0.297283 -0.146964)
(38.8927 -0.304594 -0.114395)
(41.4817 -1.01247 -0.0760463)
(44.915 -1.55504 -0.198425)
(48.7984 -1.849 -0.316245)
(52.603 -2.02575 -0.404526)
(58.2459 -1.61687 -0.290831)
(44.876 -1.5516 4.31908)
(47.5006 -0.101746 1.50761)
(47.9719 0.750281 0.375706)
(48.3606 1.34741 0.399824)
(48.3849 1.56824 0.471493)
(48.0688 1.42575 0.735279)
(47.6241 0.485337 1.66102)
(47.6074 -0.211705 2.01341)
(47.9319 -0.635058 2.06165)
(48.1379 0.0119506 1.9962)
(47.962 0.408839 1.84908)
(47.6146 0.0183615 0.971757)
(47.7384 -1.054 0.253239)
(48.4161 -2.43676 -0.311406)
(50.0593 -2.04476 -0.749862)
(50.8557 1.31983 -1.20368)
(50.2104 2.75695 -1.21808)
(48.4259 4.50318 -0.589213)
(45.8274 4.67235 -0.0326462)
(42.9805 2.93665 -0.894947)
(41.4684 2.1509 -2.48551)
(41.7341 2.13821 -2.62553)
(44.6564 0.911192 -2.44699)
(50.8313 -5.33433 -1.19753)
(58.2011 -11.1612 -0.202914)
(71.7945 -12.417 -0.0540706)
(75.0921 -3.42979 -0.0163041)
(68.3032 5.45509 1.15044)
(54.9448 6.89003 1.73761)
(46.7905 2.54295 -1.1757)
(44.1363 2.07725 -2.58134)
(44.0115 0.734793 -2.68407)
(45.9576 -0.0748701 -2.41475)
(50.7665 -2.47388 -1.4376)
(57.2418 -4.19954 -0.436731)
(66.354 -2.34325 0.071383)
(70.2113 -0.889056 0.143473)
(66.4358 4.3202 -0.0746935)
(54.739 9.22086 -0.491205)
(45.2094 5.64606 -0.303921)
(39.3515 4.57701 0.169521)
(36.9661 2.08585 0.450215)
(37.1222 1.58266 0.488163)
(38.1333 0.643996 0.514816)
(40.8875 -0.461762 0.537857)
(45.2415 -1.44364 0.568299)
(50.5552 -1.3512 0.574548)
(55.8776 -1.23932 0.59528)
(61.0491 -1.85368 0.708103)
(66.0406 -1.83072 0.769416)
(70.3136 -0.749742 0.54165)
(71.7326 -0.108538 0.366077)
(71.2042 0.18863 0.319448)
(69.1298 1.17911 0.270371)
(60.2965 0.830644 0.199842)
(47.629 -0.483609 0.16297)
(45.7087 -0.142857 0.14713)
(46.7336 -0.175489 0.0790649)
(49.8863 -0.354163 -0.329513)
(53.3593 0.00681188 -0.670875)
(56.2747 1.00073 -0.464068)
(57.0202 1.79425 -0.279518)
(55.7271 1.79184 -0.24797)
(50.2182 3.5933 -0.205494)
(42.1998 3.407 0.0383008)
(37.8619 3.7699 0.125084)
(36.4578 2.98744 0.107884)
(36.0785 2.92463 0.169268)
(36.356 2.62687 0.236205)
(37.3278 2.09776 0.469584)
(39.3011 0.977937 0.612515)
(42.3142 -0.837966 0.592372)
(46.6112 -4.28918 0.466657)
(53.7729 -5.87702 0.210214)
(56.7814 -6.74748 0.21033)
(59.3431 -2.91741 0.135345)
(59.279 -1.31453 0.0862471)
(58.5646 0.199352 0.0226673)
(55.0057 1.22567 0.102421)
(46.8212 0.755379 0.59356)
(42.5861 -0.498928 0.922169)
(42.6131 0.0415702 0.932375)
(44.0803 -0.492709 0.883038)
(47.1729 -1.97366 0.788728)
(52.6304 -3.75585 0.474146)
(59.8563 -2.89508 0.383519)
(62.8449 -0.778167 0.4025)
(61.5377 0.725455 0.431265)
(55.9557 5.41698 0.40596)
(45.2486 4.81555 0.125334)
(37.7614 2.88754 -0.0511316)
(36.2406 1.04725 -0.0861698)
(36.3539 0.883461 -0.0926202)
(36.9129 0.416609 -0.0982665)
(38.5537 -0.249521 -0.0551287)
(41.2346 -0.948066 0.133809)
(44.7481 -1.44413 0.159224)
(48.6472 -1.73282 0.055162)
(52.1641 -2.09704 0.10489)
(57.2668 -1.65737 0.115267)
(48.7609 -0.24903 -0.00870987)
(48.9242 0.623317 -0.149152)
(47.6803 1.1158 -0.725727)
(47.2667 1.35499 -1.08452)
(47.1445 1.58549 -1.09346)
(46.9217 1.44003 -0.950038)
(46.8069 0.627301 -0.863438)
(47.0638 -0.123432 -0.910036)
(47.6661 -0.326207 -0.974579)
(48.071 0.620951 -0.983216)
(48.0352 1.47778 -1.02064)
(47.5733 1.66857 -1.00761)
(48.0251 0.537998 -0.960899)
(48.994 -0.935032 -0.882004)
(50.498 -1.78881 -0.722181)
(52.6702 0.581208 -0.385799)
(52.332 3.67214 -0.330982)
(50.095 7.33696 -0.189935)
(46.5228 7.73327 -0.188811)
(42.5109 5.51528 -0.512645)
(40.5233 4.35175 -0.631518)
(40.6322 4.70606 -0.547605)
(43.2372 3.84884 0.486544)
(50.0585 -1.73083 1.63035)
(57.6421 -12.3597 1.02285)
(66.8258 -14.8328 0.332699)
(76.3123 -6.64476 0.609774)
(73.7329 1.99562 0.830211)
(63.4292 7.78856 0.160955)
(46.8382 3.09864 0.019619)
(42.4744 1.70731 1.40105)
(42.4946 1.20579 1.80644)
(44.9537 0.239833 2.32283)
(50.7835 -2.21478 1.89307)
(58.561 -4.45595 1.03896)
(67.709 -4.37511 0.558685)
(74.1672 -1.08039 0.459282)
(71.9669 4.64481 0.533047)
(61.7698 11.0315 0.208407)
(47.4397 8.69236 -0.00896996)
(39.0246 4.95942 0.32825)
(36.2953 2.98071 0.454225)
(36.3601 2.14148 0.461818)
(37.5138 1.14976 0.437929)
(40.5116 -0.3836 0.429408)
(45.3069 -1.92004 0.544158)
(51.3576 -2.01287 0.728341)
(57.1563 -1.99302 0.763398)
(62.1984 -2.76849 0.667291)
(66.5889 -2.78108 0.478274)
(69.5677 -0.807384 0.267193)
(70.0247 0.0222579 0.203005)
(69.5593 0.291264 0.197721)
(66.9741 -0.16223 0.204773)
(57.8114 -1.57933 0.163264)
(48.7638 -0.223806 0.0279307)
(47.0412 -1.3855 -0.0109147)
(47.7302 -0.897573 0.0281402)
(50.9294 -1.00014 0.277908)
(54.9849 -0.576859 0.412773)
(57.1941 1.17287 0.107355)
(57.3173 2.29758 -0.0217079)
(56.0074 2.04766 -0.0800793)
(50.3897 4.09055 -0.0967337)
(42.023 4.43539 -0.00180197)
(37.1693 4.15317 0.170338)
(35.509 3.5034 0.266897)
(35.1001 3.50343 0.390608)
(35.303 3.38384 0.43843)
(36.2338 2.72349 0.451656)
(38.0143 1.32088 0.242114)
(40.7935 -0.824568 -0.075857)
(44.8582 -5.04721 -0.220184)
(50.1361 -7.29447 0.0195392)
(51.9471 -6.36417 0.141702)
(53.4351 -4.05402 0.173404)
(53.4847 -1.18905 0.0729683)
(53.0589 0.195399 0.0508968)
(50.6229 1.27218 0.131625)
(45.0109 1.21822 0.413328)
(41.4516 -0.520894 0.620677)
(41.5194 -0.0394138 0.662301)
(43.1764 -0.474805 0.568902)
(46.6897 -2.1898 0.207879)
(52.5801 -4.37185 -0.0657307)
(60.0569 -3.36457 -0.127924)
(62.7652 -1.01334 -0.0441136)
(61.6528 0.565053 0.0220283)
(56.9862 5.50057 0.12842)
(46.8915 5.77723 0.0570934)
(38.4299 3.2858 -0.0390172)
(36.2454 1.34239 -0.0765584)
(36.2464 1.17851 -0.090148)
(36.7022 0.767848 -0.126754)
(38.1694 -0.00579349 -0.160848)
(40.6955 -1.03489 -0.197876)
(44.0791 -1.92004 -0.0682351)
(47.9043 -2.49403 0.190599)
(51.0363 -3.09916 0.110983)
(55.474 -2.22322 0.0541986)
(21.5711 13.8335 -0.182182)
(25.9377 3.44112 -0.836277)
(29.0043 2.59092 -0.855029)
(33.1638 3.16975 -0.821061)
(36.6356 3.95426 -0.819455)
(36.5115 4.26579 -0.807521)
(35.8325 3.56712 -0.77684)
(35.6079 1.7895 -0.646879)
(37.174 0.0466803 -0.515722)
(39.8913 0.381504 -0.605845)
(41.2671 3.0121 -0.842194)
(40.4888 3.34425 -0.859685)
(39.3716 2.58927 -0.51166)
(39.9928 -0.320885 -0.343662)
(42.5676 -3.62725 -0.209748)
(49.7231 -3.65467 -0.0710825)
(52.7043 1.69059 -0.0142649)
(50.6271 5.48983 -0.0371397)
(46.4415 6.95061 -0.182507)
(41.048 6.60881 -0.0728981)
(38.1978 6.34292 0.290475)
(38.1899 7.00867 0.278988)
(41.121 5.90183 -0.0540427)
(47.5391 -1.68043 -1.18048)
(53.5349 -11.6844 -1.62791)
(57.6388 -16.5352 -1.53303)
(65.3935 -7.56187 -1.07565)
(68.8824 2.05861 -0.624565)
(61.2088 7.97958 -0.798719)
(45.9044 6.52073 0.261703)
(40.293 2.3687 1.15476)
(40.5357 2.04816 1.23303)
(43.6978 1.03729 1.04875)
(50.6898 -2.15461 -0.0501099)