/*--------------------------------*- C++ -*----------------------------------*\
| =========                 |                                                 |
| \\      /  F ield         | OpenFOAM: The Open Source CFD Toolbox           |
|  \\    /   O peration     | Version:  2.3.0                                 |
|   \\  /    A nd           | Web:      www.OpenFOAM.org                      |
|    \\/     M anipulation  |                                                 |
\*---------------------------------------------------------------------------*/
FoamFile
{
    version     2.0;
    format      ascii;
    class       volScalarField;
    location    "0.04";
    object      varZ;
}
// * * * * * * * * * * * * * * * * * * * * * * * * * * * * * * * * * * * * * //

dimensions      [0 0 0 0 0 0 0];

internalField   nonuniform List<scalar> 
5000
(
5.31081e-26
1.45227e-25
3.608e-25
1.30198e-24
5.27576e-24
1.92031e-23
5.83565e-23
1.53707e-22
3.74403e-22
1.01698e-21
3.42433e-21
1.19379e-20
3.49596e-20
1.00613e-19
4.67435e-19
2.61226e-18
1.47639e-17
8.06645e-17
4.4579e-16
2.78884e-15
1.59585e-14
7.48551e-14
2.06223e-13
2.57348e-13
1.33626e-13
5.81681e-14
2.32593e-14
9.25619e-15
4.35919e-15
6.03494e-15
2.18825e-14
8.17411e-14
2.2849e-13
3.97301e-13
5.26679e-13
1.439e-12
6.30684e-12
2.84742e-11
1.18985e-10
4.29921e-10
1.32869e-09
3.59362e-09
8.67489e-09
1.86693e-08
3.56284e-08
5.89759e-08
8.34642e-08
9.49318e-08
8.03536e-08
5.62776e-08
3.73094e-08
2.33434e-08
1.40834e-08
9.32542e-09
8.55026e-09
1.15462e-08
1.86569e-08
2.87674e-08
3.69671e-08
3.72283e-08
3.18235e-08
2.53981e-08
1.92466e-08
1.45699e-08
1.26651e-08
1.46481e-08
2.15116e-08
3.46572e-08
5.5825e-08
8.69521e-08
1.29927e-07
1.74041e-07
1.8671e-07
1.53698e-07
1.15905e-07
9.18482e-08
8.41357e-08
9.38118e-08
1.17522e-07
1.50623e-07
1.92064e-07
2.40621e-07
2.86083e-07
3.09526e-07
3.05485e-07
2.94752e-07
2.97549e-07
3.22236e-07
3.81387e-07
5.76065e-07
1.00398e-06
1.58909e-06
2.30159e-06
3.15394e-06
4.15955e-06
5.32525e-06
6.59414e-06
7.89423e-06
9.30484e-06
1.13236e-05
4.13517e-24
1.53277e-23
3.81288e-23
9.15995e-23
2.89628e-22
1.02341e-21
3.15279e-21
8.52617e-21
2.34788e-20
8.50846e-20
3.92431e-19
1.71209e-18
5.35483e-18
1.06975e-17
3.03825e-17
1.55959e-16
8.86549e-16
5.04088e-15
2.97421e-14
2.04402e-13
1.26747e-12
6.52176e-12
1.9256e-11
2.46223e-11
1.22772e-11
4.99808e-12
1.9079e-12
7.18842e-13
3.04414e-13
3.58865e-13
1.29737e-12
5.15937e-12
1.58203e-11
2.95066e-11
2.75126e-11
3.40963e-11
1.02117e-10
3.59823e-10
1.16327e-09
3.71823e-09
1.29586e-08
4.17017e-08
1.13245e-07
2.69871e-07
5.95387e-07
1.18225e-06
2.02916e-06
2.90965e-06
2.71566e-06
1.86062e-06
1.15068e-06
6.82775e-07
3.92279e-07
2.31279e-07
1.55398e-07
1.68631e-07
2.89733e-07
5.76256e-07
9.15973e-07
9.42407e-07
7.55868e-07
5.57945e-07
3.88481e-07
2.68715e-07
1.97788e-07
1.99457e-07
2.78764e-07
4.59762e-07
7.9438e-07
1.37542e-06
2.34634e-06
3.74224e-06
5.03948e-06
4.28678e-06
2.85601e-06
1.81479e-06
1.16212e-06
8.44888e-07
8.12639e-07
9.72641e-07
1.35482e-06
2.00417e-06
2.8074e-06
3.10138e-06
2.76713e-06
2.20655e-06
1.72404e-06
1.31453e-06
1.02319e-06
1.19689e-06
1.94911e-06
3.27734e-06
4.95847e-06
6.82642e-06
8.80846e-06
1.09014e-05
1.30773e-05
1.52448e-05
1.75759e-05
2.14935e-05
6.58423e-22
8.62332e-22
2.10337e-21
6.93524e-21
2.66492e-20
9.32438e-20
2.7525e-19
7.17517e-19
1.9578e-18
7.22827e-18
3.48525e-17
1.61112e-16
5.14004e-16
9.5424e-16
2.02522e-15
9.04111e-15
4.84665e-14
2.68437e-13
1.56144e-12
1.04903e-11
6.30309e-11
3.19215e-10
9.80497e-10
1.35871e-09
7.18207e-10
2.97502e-10
1.16653e-10
4.45506e-11
1.88181e-11
2.17325e-11
7.66977e-11
3.01238e-10
8.94046e-10
1.56848e-09
1.26857e-09
8.01414e-10
7.96493e-10
1.62758e-09
4.53209e-09
1.2899e-08
4.19465e-08
1.37335e-07
3.88237e-07
9.50309e-07
2.19641e-06
4.80317e-06
9.73848e-06
1.80733e-05
2.55447e-05
2.46678e-05
1.73924e-05
9.49358e-06
5.3388e-06
2.41637e-06
6.84021e-07
6.08815e-07
1.03721e-06
2.5121e-06
5.60156e-06
8.5125e-06
8.45984e-06
7.06615e-06
4.46266e-06
2.30507e-06
1.05224e-06
9.20022e-07
1.20141e-06
2.08487e-06
3.70316e-06
6.45878e-06
1.15222e-05
2.07076e-05
3.52111e-05
4.45117e-05
4.11517e-05
2.58986e-05
1.25337e-05
5.86585e-06
3.38763e-06
3.5504e-06
4.74404e-06
7.23819e-06
1.08349e-05
1.41824e-05
1.43095e-05
1.30349e-05
9.73904e-06
5.02658e-06
2.33599e-06
2.32144e-06
3.23569e-06
5.2365e-06
7.84812e-06
1.06683e-05
1.35484e-05
1.65196e-05
1.95757e-05
2.26437e-05
2.59316e-05
3.23398e-05
1.31838e-19
1.56722e-19
2.72484e-19
6.9061e-19
2.29493e-18
7.584e-18
2.16076e-17
5.48571e-17
1.48985e-16
5.44508e-16
2.43663e-15
1.09714e-14
3.6197e-14
6.58883e-14
1.20999e-13
4.73821e-13
2.33344e-12
1.20861e-11
6.6104e-11
4.02469e-10
2.22133e-09
1.04582e-08
3.27963e-08
4.88046e-08
2.75931e-08
1.174e-08
4.69914e-09
1.82314e-09
7.79665e-10
8.58757e-10
2.75607e-09
9.92852e-09
2.83124e-08
5.04603e-08
4.17563e-08
2.3574e-08
1.37143e-08
1.06566e-08
1.75638e-08
4.25669e-08
1.21814e-07
3.87197e-07
1.1161e-06
2.74557e-06
5.83789e-06
1.09743e-05
1.88765e-05
3.05233e-05
4.66891e-05
6.36081e-05
6.51938e-05
5.50967e-05
2.90246e-05
7.71376e-06
1.81786e-06
1.52049e-06
2.21321e-06
4.50447e-06
9.0693e-06
1.60277e-05
2.07789e-05
2.03828e-05
1.66099e-05
9.27268e-06
3.48651e-06
2.77897e-06
3.64509e-06
6.50091e-06
1.15527e-05
1.86014e-05
2.81402e-05
4.17042e-05
6.1643e-05
9.14582e-05
0.000112806
0.000105194
6.99334e-05
2.49602e-05
8.50467e-06
7.3074e-06
8.46857e-06
1.18519e-05
1.71568e-05
2.41348e-05
2.80583e-05
2.73901e-05
2.39165e-05
1.50514e-05
5.89611e-06
4.10599e-06
4.86175e-06
7.11533e-06
1.04523e-05
1.43089e-05
1.84896e-05
2.30333e-05
2.78163e-05
3.24895e-05
3.72302e-05
4.68035e-05
1.68788e-17
2.65835e-17
4.64541e-17
1.02895e-16
2.63595e-16
7.34977e-16
1.92849e-15
4.7482e-15
1.29628e-14
4.64964e-14
1.96021e-13
8.11344e-13
2.48118e-12
4.23157e-12
5.2766e-12
1.47374e-11
6.58003e-11
3.29205e-10
1.73487e-09
9.55699e-09
4.7115e-08
2.00673e-07
6.71736e-07
1.18721e-06
7.44445e-07
3.31788e-07
1.37034e-07
5.39851e-08
2.26226e-08
2.09451e-08
5.58748e-08
1.76148e-07
5.19204e-07
1.07161e-06
9.12656e-07
5.34727e-07
2.93817e-07
1.57157e-07
1.06195e-07
1.53318e-07
3.41156e-07
1.04209e-06
2.85629e-06
6.39139e-06
1.1985e-05
1.96692e-05
2.96426e-05
4.25004e-05
5.83917e-05
7.87712e-05
0.000100451
0.000100147
7.62348e-05
2.77202e-05
5.54187e-06
3.43168e-06
4.22818e-06
7.05604e-06
1.23592e-05
2.03172e-05
3.00898e-05
3.33399e-05
3.0945e-05
2.14939e-05
9.54692e-06
7.05024e-06
8.68529e-06
1.40469e-05
2.27994e-05
3.36028e-05
4.65014e-05
6.37252e-05
9.00276e-05
0.000129654
0.000179736
0.000186042
0.000164458
9.15611e-05
2.55506e-05
1.19796e-05
1.22683e-05
1.52123e-05
2.10651e-05
2.95858e-05
3.93769e-05
4.16396e-05
3.95852e-05
2.98135e-05
1.3322e-05
6.64661e-06
7.04563e-06
9.35411e-06
1.34721e-05
1.87308e-05
2.47865e-05
3.16886e-05
3.92626e-05
4.6863e-05
5.44487e-05
6.90852e-05
2.47685e-14
1.64992e-14
7.32649e-15
8.57913e-15
2.11964e-14
5.66168e-14
1.37757e-13
3.06763e-13
7.51058e-13
2.38724e-12
9.19669e-12
3.57722e-11
1.08942e-10
1.91133e-10
2.04412e-10
3.79987e-10
1.33236e-09
5.8813e-09
2.77447e-08
1.07173e-07
4.2124e-07
1.58655e-06
6.17263e-06
1.83382e-05
1.51091e-05
7.17669e-06
3.079e-06
1.24005e-06
5.13266e-07
2.528e-07
3.23421e-07
7.86482e-07
2.82152e-06
9.65693e-06
1.19316e-05
8.07949e-06
4.54668e-06
2.40782e-06
1.13608e-06
6.52955e-07
9.88877e-07
2.64552e-06
6.50043e-06
1.29746e-05
2.18099e-05
3.24171e-05
4.46484e-05
5.92357e-05
7.61149e-05
9.51093e-05
0.000121121
0.000136226
0.000125698
7.53031e-05
2.03521e-05
7.6348e-06
8.04718e-06
1.12842e-05
1.79284e-05
2.74376e-05
3.95756e-05
4.75454e-05
4.61698e-05
3.5933e-05
1.83175e-05
1.29121e-05
1.48567e-05
2.18371e-05
3.35649e-05
4.8283e-05
6.69078e-05
9.48848e-05
0.000141335
0.000201514
0.000252479
0.000259424
0.000247516
0.000192931
8.53182e-05
2.37953e-05
1.76155e-05
1.93574e-05
2.49197e-05
3.42647e-05
4.70168e-05
5.73997e-05
5.71961e-05
4.86361e-05
2.55613e-05
1.05034e-05
9.91732e-06
1.20071e-05
1.68547e-05
2.3815e-05
3.24436e-05
4.27937e-05
5.46052e-05
6.68288e-05
7.85937e-05
9.86154e-05
2.13351e-12
1.93116e-12
9.67041e-13
1.08312e-12
2.50305e-12
6.51186e-12
1.53457e-11
3.0458e-11
5.61166e-11
1.22791e-10
3.66252e-10
1.26694e-09
3.74536e-09
6.55128e-09
6.49623e-09
8.55833e-09
1.93954e-08
5.29711e-08
1.41757e-07
4.36249e-07
1.62067e-06
5.73746e-06
1.92635e-05
5.35688e-05
0.000107692
9.06182e-05
3.75204e-05
1.49139e-05
5.6787e-06
1.33945e-06
1.27314e-06
2.46053e-06
7.46096e-06
2.05194e-05
4.34137e-05
4.80485e-05
3.6898e-05
1.81129e-05
7.00846e-06
2.38379e-06
2.51285e-06
4.80437e-06
1.0553e-05
1.99175e-05
3.20728e-05
4.58571e-05
6.07813e-05
7.79269e-05
9.77776e-05
0.000118817
0.00014376
0.000173503
0.000174117
0.000146682
6.78803e-05
1.92453e-05
1.58524e-05
1.89283e-05
2.71216e-05
3.9145e-05
5.43384e-05
6.70237e-05
6.63232e-05
5.39571e-05
2.90167e-05
1.95367e-05
2.14391e-05
2.94685e-05
4.44048e-05
6.58678e-05
9.84116e-05
0.000152252
0.000230421
0.000294081
0.000306506
0.000298868
0.000287784
0.000256556
0.000170116
5.80805e-05
2.58973e-05
2.58926e-05
3.05438e-05
4.09805e-05
5.59632e-05
7.32124e-05
7.79422e-05
7.13575e-05
4.37808e-05
1.71264e-05
1.35658e-05
1.53986e-05
2.08242e-05
2.97654e-05
4.16598e-05
5.63985e-05
7.33879e-05
9.11175e-05
0.000106555
0.000127471
1.90425e-10
2.2026e-10
1.20974e-10
1.07475e-10
2.25508e-10
6.12335e-10
1.52155e-09
3.05405e-09
4.80727e-09
7.31474e-09
1.49266e-08
4.13927e-08
1.12195e-07
1.98711e-07
1.91931e-07
1.66563e-07
1.86284e-07
2.9996e-07
5.90929e-07
1.29307e-06
4.07413e-06
1.27825e-05
3.43904e-05
7.52415e-05
0.000149706
0.000263089
0.000253108
0.000128937
2.50204e-05
4.87322e-06
4.09468e-06
6.44727e-06
1.48149e-05
3.27438e-05
6.12281e-05
0.000106959
0.000113572
8.16528e-05
3.08497e-05
7.61393e-06
5.33185e-06
7.76685e-06
1.5127e-05
2.74786e-05
4.33296e-05
6.09414e-05
7.94036e-05
0.000100328
0.000125056
0.00015076
0.000176662
0.000208919
0.000220928
0.000210927
0.000145378
4.93214e-05
2.92483e-05
3.14698e-05
3.99684e-05
5.36977e-05
7.14272e-05
9.05071e-05
9.17046e-05
7.76465e-05
4.32504e-05
2.72888e-05
2.89688e-05
3.83791e-05
5.8551e-05
9.23123e-05
0.000149441
0.000239679
0.000330733
0.000349601
0.000336064
0.000308368
0.000286252
0.000263601
0.000207726
9.71645e-05
3.90881e-05
3.53963e-05
3.95108e-05
5.18945e-05
7.15737e-05
9.34398e-05
0.000102271
9.69715e-05
6.71091e-05
2.75396e-05
1.83384e-05
1.9842e-05
2.56962e-05
3.6801e-05
5.26991e-05
7.27196e-05
9.50364e-05
0.000116925
0.000132049
0.000144855
2.75198e-08
3.50111e-08
1.98363e-08
1.25714e-08
1.69661e-08
3.75005e-08
9.08789e-08
1.88429e-07
2.83238e-07
3.57842e-07
5.23621e-07
1.04064e-06
2.42767e-06
4.51524e-06
5.22967e-06
4.00274e-06
3.00171e-06
2.47971e-06
2.72026e-06
3.93475e-06
8.6421e-06
2.20744e-05
5.04012e-05
0.000101967
0.000171651
0.000258411
0.000308027
0.000269097
0.000121499
2.23756e-05
1.21188e-05
1.5446e-05
2.81173e-05
5.4482e-05
9.10318e-05
0.000136414
0.000190111
0.000179851
0.000103574
2.77681e-05
1.04563e-05
1.21759e-05
2.004e-05
3.48579e-05
5.48014e-05
7.78475e-05
0.000102455
0.000130405
0.000163029
0.000194507
0.000222312
0.000251308
0.000259136
0.000247214
0.000193257
8.31416e-05
4.74292e-05
4.85038e-05
5.70685e-05
7.2059e-05
9.14019e-05
0.000116357
0.000122054
0.000107122
6.22606e-05
3.69263e-05
3.82352e-05
4.99109e-05
7.85863e-05
0.000131489
0.00022082
0.00033565
0.000394767
0.000388487
0.000344284
0.000273113
0.000237805
0.000223749
0.000191505
0.00011243
5.36095e-05
4.69921e-05
5.14713e-05
6.73885e-05
9.60486e-05
0.000123188
0.000129669
0.000124478
9.36443e-05
4.19801e-05
2.47221e-05
2.57446e-05
3.19638e-05
4.52915e-05
6.54382e-05
9.11448e-05
0.000118435
0.000140771
0.000151465
0.000151426
1.01625e-06
3.22677e-06
2.73064e-06
2.0385e-06
2.12333e-06
2.96597e-06
5.15867e-06
9.05166e-06
1.33052e-05
1.52458e-05
1.70425e-05
2.21278e-05
3.5943e-05
6.33266e-05
0.000108192
0.000101317
6.86904e-05
3.53108e-05
1.40818e-05
1.28906e-05
1.8661e-05
3.62784e-05
7.28966e-05
0.000142882
0.000234873
0.000309956
0.000316526
0.000299254
0.000221178
6.89986e-05
2.87555e-05
3.20911e-05
4.96165e-05
8.8688e-05
0.000145294
0.000201189
0.000253717
0.000256133
0.000208456
8.33425e-05
2.17165e-05
1.97268e-05
2.65743e-05
4.3562e-05
6.91465e-05
0.000102019
0.000138714
0.00017669
0.000213152
0.000242747
0.000267745
0.000284204
0.000282336
0.000266381
0.000209833
0.000104973
7.03298e-05
7.15278e-05
8.25277e-05
0.000100119
0.000120113
0.000148091
0.000158713
0.000142921
8.66725e-05
4.92725e-05
5.01234e-05
6.54104e-05
0.000106202
0.000182504
0.000300608
0.000412731
0.0004364
0.000413051
0.000328944
0.000227418
0.000194279
0.000186249
0.000167281
0.000113099
6.66053e-05
6.10584e-05
6.70328e-05
8.91056e-05
0.000130729
0.000159247
0.000159538
0.000152779
0.000120537
5.95444e-05
3.29292e-05
3.33254e-05
3.97479e-05
5.52225e-05
7.98826e-05
0.000112347
0.000145658
0.000163856
0.000165527
0.000157949
7.53752e-05
0.000256305
0.000280241
0.000315332
0.000287713
0.000264428
0.000288468
0.000400538
0.000455711
0.000407722
0.00030761
0.000208382
0.000226802
0.000310185
0.000348618
0.00034055
0.000285091
0.000162697
5.23191e-05
3.32747e-05
3.95316e-05
6.30758e-05
0.000115577
0.00020554
0.000299215
0.000341201
0.000341129
0.000324137
0.000264639
0.000109042
5.54241e-05
6.02586e-05
8.74925e-05
0.000147972
0.000221706
0.000270957
0.000295806
0.000291519
0.000264114
0.00016115
4.48619e-05
2.9853e-05
3.5921e-05
5.51824e-05
8.86898e-05
0.00013721
0.000190316
0.000230378
0.000253669
0.000269531
0.000287679
0.000294092
0.000289142
0.000269397
0.000200172
0.000118906
0.000101937
0.000107273
0.000128976
0.000151919
0.000169114
0.000194012
0.000203416
0.000184686
0.000113378
6.41259e-05
6.52464e-05
8.64825e-05
0.000143084
0.000244638
0.000381015
0.000468118
0.00047109
0.000431002
0.000302467
0.000186571
0.000163901
0.000159318
0.0001452
0.000105292
7.6007e-05
7.511e-05
8.52993e-05
0.000118392
0.000171825
0.000194067
0.000191936
0.000182029
0.000147385
7.9145e-05
4.31543e-05
4.27908e-05
4.9471e-05
6.72516e-05
9.71256e-05
0.000137973
0.000176669
0.000190004
0.000188676
0.000167017
9.28344e-06
3.44303e-05
7.07616e-05
0.000154047
0.000282131
0.000343012
0.000345611
0.00033919
0.000314926
0.000344764
0.000382094
0.000377484
0.000374971
0.00036362
0.000332593
0.000308449
0.000283603
0.000212049
9.42297e-05
6.55653e-05
7.50925e-05
0.000110166
0.000179136
0.000270005
0.000351831
0.000352561
0.000345824
0.000337891
0.000291792
0.000148299
9.22458e-05
0.00010206
0.000149917
0.000236052
0.000289113
0.000297503
0.000301542
0.000298846
0.000280698
0.000212181
7.26776e-05
4.21363e-05
4.79379e-05
7.10528e-05
0.000117216
0.000185921
0.000235707
0.000256926
0.000265258
0.000269378
0.000277865
0.000284795
0.000278679
0.000246007
0.000170017
0.000145675
0.000148713
0.000167571
0.000204739
0.00023038
0.000239096
0.000252838
0.000253714
0.00022722
0.000136641
8.11269e-05
8.44395e-05
0.000115083
0.000190986
0.000316344
0.000453086
0.000510171
0.000506772
0.000448911
0.000288746
0.000158073
0.000138179
0.000135004
0.000124023
9.68353e-05
8.53901e-05
8.89878e-05
0.000109293
0.000159405
0.000213198
0.000221559
0.000216723
0.000204711
0.000170833
9.96759e-05
5.53251e-05
5.39108e-05
6.11205e-05
8.18486e-05
0.000119484
0.0001736
0.00021659
0.000221998
0.000212448
0.00016999
9.32244e-07
5.48061e-06
1.65254e-05
4.18296e-05
0.000114519
0.000173752
0.000173066
0.000139531
0.000153662
0.000221906
0.000290309
0.000307217
0.000282895
0.000242062
0.000265473
0.000299895
0.000277894
0.000205051
0.00012971
0.000117186
0.000135082
0.000182844
0.000242998
0.000300819
0.000380429
0.000363436
0.000276721
0.0002402
0.000195087
0.000127926
0.000125131
0.000158164
0.000246885
0.000320477
0.000312647
0.000278169
0.000269877
0.000279188
0.000269463
0.000222989
9.29111e-05
5.5447e-05
6.24892e-05
9.3698e-05
0.000161825
0.000239283
0.000248125
0.00023652
0.000222055
0.000225591
0.000242766
0.000257193
0.000247854
0.000199643
0.000174349
0.000186469
0.000211615
0.000236405
0.000256247
0.000276161
0.000295574
0.000300727
0.000292833
0.000260459
0.00015466
0.000100946
0.000108865
0.000153019
0.000251088
0.000393097
0.00051103
0.000550668
0.000548351
0.000487896
0.000299997
0.000143336
0.000113127
0.000108126
9.99884e-05
9.15176e-05
9.32686e-05
0.000107342
0.000147605
0.000213105
0.000243216
0.000237239
0.000225415
0.000210624
0.000182819
0.000118263
6.8803e-05
6.6285e-05
7.47837e-05
0.000100685
0.000151062
0.000222273
0.000260924
0.000257385
0.000228268
0.000165094
1.23202e-07
9.22585e-07
3.42449e-06
9.16918e-06
2.15288e-05
3.35409e-05
3.72008e-05
4.09025e-05
5.74817e-05
8.57576e-05
0.00011619
0.000131911
0.000126984
0.000144384
0.000211625
0.000305804
0.000306699
0.000264495
0.000205673
0.000200931
0.000217552
0.00024396
0.000259147
0.000290788
0.000393294
0.000392571
0.000244438
0.000154848
0.000142783
0.00014501
0.00017637
0.000254153
0.000355078
0.000355186
0.000296488
0.00022443
0.000219845
0.000241148
0.000248527
0.000209772
9.76173e-05
6.89341e-05
8.14643e-05
0.000132491
0.000230833
0.000259872
0.000229202
0.00018164
0.000178111
0.000191919
0.000218287
0.000220836
0.000200114
0.000186882
0.000200857
0.000242604
0.000263129
0.00025808
0.000256279
0.000265872
0.000289882
0.000301909
0.000293578
0.000259223
0.000158546
0.000123509
0.00014022
0.000203708
0.000325013
0.000466467
0.000556756
0.000593297
0.000594469
0.0005431
0.000356497
0.000147839
9.55163e-05
9.04302e-05
9.10287e-05
9.41756e-05
0.000106211
0.000141504
0.000208019
0.000262113
0.000259711
0.000239259
0.000213704
0.000197258
0.000176846
0.000127407
8.14952e-05
7.93168e-05
9.09704e-05
0.000126447
0.000196277
0.000283004
0.000308274
0.000290021
0.000232421
0.000157865
1.88628e-08
1.54515e-07
6.28201e-07
1.66454e-06
3.52396e-06
5.68214e-06
8.03782e-06
1.17909e-05
1.78981e-05
2.56146e-05
3.37791e-05
4.298e-05
5.56078e-05
8.29745e-05
0.000120643
0.000201593
0.000272901
0.000270389
0.000249324
0.000244332
0.000242036
0.000237369
0.000234783
0.000258893
0.000374556
0.000439825
0.000355495
0.000220498
0.000191173
0.00021731
0.000286272
0.000384631
0.000420208
0.000377691
0.000241342
0.000182812
0.000187217
0.000213546
0.000224475
0.000187129
9.56973e-05
8.33938e-05
0.000108133
0.000191759
0.000284381
0.000266683
0.000181464
0.000143707
0.000149774
0.000171576
0.000184814
0.000184356
0.000190257
0.000211834
0.000266345
0.000277283
0.000256047
0.000202208
0.000184838
0.000197154
0.000240793
0.000285081
0.000282579
0.000246277
0.000160814
0.000149292
0.000181564
0.000270857
0.000408754
0.000528521
0.000595577
0.000630934
0.000632325
0.000589711
0.000427131
0.000179816
0.000101514
9.46985e-05
9.64088e-05
0.000106267
0.000138671
0.000202851
0.000279347
0.000293193
0.00026875
0.000219001
0.000184529
0.000172429
0.000162056
0.000126769
9.19374e-05
9.24461e-05
0.000110903
0.000161828
0.000256237
0.00034879
0.000357145
0.000314984
0.000227108
0.000153452
4.03701e-09
2.80458e-08
1.18709e-07
3.36649e-07
7.36791e-07
1.36134e-06
2.45738e-06
4.26318e-06
6.78966e-06
1.01693e-05
1.479e-05
2.14371e-05
3.18995e-05
4.79288e-05
6.83311e-05
0.000115697
0.000181904
0.000222476
0.000231839
0.00022666
0.000213985
0.000190555
0.000185318
0.000221487
0.000309841
0.000430091
0.000437173
0.000374045
0.000325528
0.000356944
0.000430826
0.000471193
0.0004531
0.00037788
0.000206992
0.000157628
0.000167437
0.000197062
0.000202385
0.00015855
9.56788e-05
9.95773e-05
0.000146934
0.000265772
0.000327216
0.000267592
0.000151968
0.000129428
0.00013383
0.000147184
0.000162911
0.000182353
0.000220689
0.000294501
0.000319802
0.000286844
0.000198669
0.00015292
0.000154231
0.000166049
0.000204928
0.000258238
0.000262679
0.000222579
0.000168654
0.00017873
0.000238854
0.000354833
0.000490125
0.000577705
0.000627454
0.000655506
0.000654998
0.000624294
0.000505824
0.00024271
0.000123881
0.000111383
0.000115006
0.000138232
0.000195981
0.000282653
0.000332963
0.000321871
0.000261192
0.000193082
0.000164435
0.000155754
0.00014771
0.000121699
0.000100912
0.000106197
0.000136669
0.000209805
0.000329916
0.000413505
0.000406863
0.000332987
0.000223564
0.000154116
7.82029e-09
4.74569e-08
1.76984e-07
4.92349e-07
1.14919e-06
2.37376e-06
4.28872e-06
6.87643e-06
1.00379e-05
1.35367e-05
1.72704e-05
2.15316e-05
2.82088e-05
3.79528e-05
5.00805e-05
6.86181e-05
9.86102e-05
0.000134297
0.000178865
0.000163381
0.000143686
0.00013607
0.000155043
0.000198015
0.00026861
0.000360906
0.00042629
0.000445167
0.000451659
0.000478556
0.000497146
0.000491834
0.000470741
0.000391102
0.000197756
0.000135749
0.000147637
0.00017706
0.000174257
0.000125453
0.000102099
0.000125049
0.00020957
0.000355242
0.000382052
0.000276362
0.000147569
0.000127827
0.000134027
0.00015166
0.000181111
0.00022872
0.000314416
0.00038673
0.000375986
0.000280156
0.000165993
0.000142392
0.000146414
0.000163294
0.000204357
0.000240467
0.000236654
0.000197522
0.000186684
0.000220332
0.000315203
0.000445703
0.000556657
0.000613847
0.000648447
0.000665819
0.000664292
0.000647528
0.000577546
0.000340385
0.000174797
0.000151597
0.000158664
0.00019844
0.000279169
0.000360599
0.000378635
0.000346439
0.000249922
0.000175699
0.000154376
0.000146677
0.000136981
0.000115982
0.000109828
0.000122797
0.000171495
0.000272543
0.000412149
0.000475854
0.000454194
0.000354195
0.000233532
0.000160414
3.81768e-08
2.26731e-07
7.91221e-07
1.95264e-06
4.09355e-06
7.86888e-06
1.31851e-05
1.94095e-05
2.58097e-05
3.11184e-05
3.6104e-05
4.12166e-05
4.5853e-05
4.99178e-05
5.42256e-05
5.90401e-05
6.83217e-05
7.97398e-05
9.95702e-05
9.83508e-05
0.000101354
0.000112983
0.000137592
0.000174566
0.000231101
0.00030565
0.000370358
0.000423758
0.000450101
0.000465542
0.000471832
0.000479335
0.000490189
0.000449938
0.000251273
0.000126235
0.000122734
0.000134913
0.000128329
0.00010963
0.000118138
0.000172529
0.000304918
0.000452271
0.000462185
0.000371268
0.00023543
0.000178643
0.000181324
0.000208368
0.000259623
0.00034109
0.000442197
0.000479232
0.000444415
0.000308947
0.000177046
0.000143093
0.00014638
0.000164378
0.000201711
0.000216872
0.000206513
0.000194064
0.000212005
0.000283313
0.00040679
0.000527268
0.000602218
0.000636523
0.00065796
0.000667972
0.000667885
0.000661375
0.00062429
0.000463915
0.000274827
0.000231387
0.00024005
0.000291826
0.000373986
0.000425514
0.000427243
0.000371921
0.000245806
0.000166684
0.000147068
0.000139135
0.000128113
0.000116142
0.000119213
0.000146036
0.00021926
0.000351522
0.000497124
0.000536304
0.00050135
0.000389037
0.000260582
0.000171998
2.55769e-07
1.22063e-06
3.71185e-06
8.44906e-06
1.6055e-05
2.82396e-05
4.17038e-05
5.17165e-05
5.82379e-05
6.23424e-05
6.58523e-05
6.94418e-05
7.24194e-05
7.45342e-05
7.62616e-05
7.55205e-05
7.58101e-05
7.85379e-05
8.39121e-05
8.82894e-05
9.50448e-05
0.000106662
0.000126531
0.000153307
0.00019062
0.00024241
0.000284804
0.000330258
0.000370204
0.000382383
0.000397346
0.000443091
0.000499918
0.000492996
0.000328986
0.000139022
0.000112478
0.000112763
0.00011331
0.000118271
0.000156548
0.000261101
0.000427268
0.000545674
0.000555242
0.000500119
0.00038525
0.000305294
0.000305351
0.000343668
0.000408702
0.000494874
0.000564302
0.000574051
0.000536892
0.000423832
0.00026897
0.000168452
0.000151731
0.000158741
0.00018026
0.000192057
0.000197416
0.000207739
0.000260479
0.000369979
0.000497717
0.000586974
0.000628485
0.000647853
0.000658183
0.000659002
0.000662771
0.000667188
0.000654014
0.000572121
0.000419103
0.000358855
0.000360333
0.00040045
0.000455677
0.000485115
0.00048433
0.000412994
0.000252276
0.000163085
0.000141789
0.000132645
0.00012423
0.000121465
0.000133548
0.000179893
0.000283473
0.000444703
0.000576789
0.000595333
0.000552359
0.000442985
0.00030537
0.000189616
1.99838e-06
7.73789e-06
1.80151e-05
3.66012e-05
5.77347e-05
7.70647e-05
8.39233e-05
8.55011e-05
8.64828e-05
8.76025e-05
8.90092e-05
9.02763e-05
9.08609e-05
9.08083e-05
9.00467e-05
8.88862e-05
8.79921e-05
8.74553e-05
8.80948e-05
9.02498e-05
9.4218e-05
0.000101062
0.000112103
0.00012386
0.000141059
0.000167803
0.000190745
0.000223113
0.00026207
0.000291577
0.00033352
0.000403581
0.000489587
0.000513964
0.000401601
0.000200189
0.000130034
0.000123349
0.000127013
0.000153005
0.000240805
0.000389685
0.000537867
0.000604366
0.000608095
0.000585582
0.000524882
0.000481258
0.000483972
0.000516097
0.000566828
0.000619347
0.000642211
0.000639021
0.000609161
0.000525356
0.000377183
0.000234675
0.000174461
0.000169702
0.000177382
0.00019118
0.000207057
0.00024663
0.000343687
0.000467563
0.000571104
0.000619739
0.000637301
0.000647151
0.000645838
0.000640261
0.000645794
0.000665991
0.00066722
0.000638177
0.000551921
0.000496299
0.000483083
0.000494622
0.000521851
0.000551632
0.00055563
0.000475808
0.000281641
0.00016611
0.000140209
0.000131296
0.00012698
0.000130768
0.000156559
0.000229803
0.00036856
0.00054743
0.000647976
0.00065324
0.000608005
0.000512404
0.000363643
0.000214303
7.45374e-06
3.26828e-05
5.61988e-05
7.45727e-05
8.21345e-05
8.16966e-05
8.17759e-05
8.29154e-05
8.47604e-05
8.65237e-05
8.71011e-05
8.66694e-05
8.57775e-05
8.49839e-05
8.48959e-05
8.56121e-05
8.63054e-05
8.67505e-05
8.76773e-05
8.76557e-05
8.78604e-05
8.67139e-05
8.60885e-05
8.56832e-05
9.1031e-05
0.000103589
0.000119271
0.000148719
0.000186373
0.000223726
0.000279929
0.000345979
0.000427285
0.000492406
0.00044431
0.000317475
0.000198619
0.000168559
0.000180367
0.000249748
0.000385347
0.000516442
0.000573628
0.000602207
0.000607993
0.000599907
0.000572425
0.00057106
0.00058872
0.000620803
0.000649751
0.000663813
0.000663781
0.000658026
0.000641492
0.000600517
0.000496451
0.000349132
0.000236871
0.000199359
0.000199529
0.000214727
0.000251414
0.000331809
0.000452521
0.000556276
0.000610827
0.000626017
0.000633857
0.000634433
0.000623473
0.000618995
0.000630896
0.000658888
0.000672032
0.000664398
0.000629108
0.000592921
0.000569624
0.000567972
0.000588635
0.000633553
0.000644226
0.00056224
0.000342253
0.000185275
0.000146623
0.000137126
0.000136526
0.00014847
0.000196382
0.000304852
0.00047975
0.000649772
0.000710252
0.000709482
0.000667701
0.000591334
0.000429243
0.000248779
7.72147e-07
4.79249e-06
1.01067e-05
1.66239e-05
2.16992e-05
2.62689e-05
3.06709e-05
3.46286e-05
3.85895e-05
4.18342e-05
4.38682e-05
4.62711e-05
4.93418e-05
5.34544e-05
5.81311e-05
6.35462e-05
6.71988e-05
6.87124e-05
7.08491e-05
6.91379e-05
6.51454e-05
5.96331e-05
5.52655e-05
5.43328e-05
5.84315e-05
6.72756e-05
7.97856e-05
0.000102352
0.000131341
0.000166191
0.00021877
0.000265375
0.000328403
0.000416225
0.000485132
0.000444444
0.000354977
0.000311869
0.000333464
0.000432453
0.000510335
0.000526366
0.000540563
0.000540467
0.000538829
0.000548668
0.000560477
0.000574147
0.000593275
0.000611326
0.000623284
0.000624818
0.000623492
0.000629153
0.000637889
0.000627925
0.000588006
0.000497652
0.00037733
0.000292876
0.000272814
0.000295671
0.000358767
0.000459629
0.000558191
0.000603305
0.000613321
0.000618875
0.000617299
0.000607047
0.000594779
0.000598527
0.00061979
0.000650674
0.000671391
0.000674278
0.000662433
0.0006424
0.000627139
0.000630375
0.000670098
0.000727662
0.000736953
0.000666151
0.000452388
0.000234166
0.000167127
0.00015453
0.000157191
0.00018499
0.000265967
0.000417412
0.000610437
0.000736749
0.000763144
0.000760871
0.000728405
0.000672897
0.000497829
0.000300083
4.65741e-08
3.64365e-07
9.11318e-07
1.76983e-06
2.84834e-06
4.14428e-06
5.59594e-06
7.20478e-06
8.96242e-06
1.04702e-05
1.18279e-05
1.36005e-05
1.60439e-05
1.93333e-05
2.32581e-05
2.72737e-05
2.99285e-05
3.16555e-05
3.39894e-05
3.41403e-05
3.36271e-05
3.31561e-05
3.43653e-05
3.87418e-05
4.56527e-05
5.44582e-05
6.53167e-05
8.06952e-05
9.98275e-05
0.000124482
0.000158948
0.000186308
0.000227785
0.00029526
0.000407129
0.000481212
0.000492399
0.000490876
0.000484871
0.000495314
0.000475958
0.000452952
0.000427676
0.000413574
0.000424223
0.000453363
0.000478309
0.000500813
0.000512866
0.00051324
0.000519269
0.000525605
0.000540426
0.000565176
0.000597025
0.000623211
0.000618179
0.00059343
0.000542265
0.000473278
0.000434226
0.000453652
0.00050869
0.000574177
0.000598283
0.00060091
0.0005995
0.000594091
0.000582326
0.000570162
0.000568202
0.000581998
0.000611294
0.000643968
0.00066907
0.000681589
0.00068137
0.000677637
0.000678355
0.000700129
0.000759682
0.000801784
0.000805249
0.000763072
0.000607233
0.000349218
0.000218066
0.00019472
0.000203928
0.000258727
0.000383724
0.000566526
0.000730638
0.00079498
0.000802542
0.000802329
0.000783954
0.000750402
0.000568999
0.000377631
2.92265e-09
2.42722e-08
7.17407e-08
1.65724e-07
3.1236e-07
5.23408e-07
7.74844e-07
1.07379e-06
1.41681e-06
1.79776e-06
2.25964e-06
2.88909e-06
3.72028e-06
4.81397e-06
6.12204e-06
7.39359e-06
8.46002e-06
9.6651e-06
1.14053e-05
1.3625e-05
1.70535e-05
2.11687e-05
2.73334e-05
3.48653e-05
4.32907e-05
5.24587e-05
6.28425e-05
7.48579e-05
8.77624e-05
0.000102993
0.000120739
0.000136239
0.000155112
0.000184326
0.000242316
0.000315544
0.000395596
0.000422725
0.00041052
0.000364368
0.000329767
0.000304644
0.000290376
0.000293439
0.00031775
0.000348842
0.000369968
0.000381854
0.000386266
0.000393187
0.000413449
0.000439673
0.00046872
0.00049816
0.000528439
0.000569679
0.000605206
0.0006089
0.000604553
0.000595061
0.000580676
0.000582304
0.000589511
0.000592368
0.000585168
0.000575857
0.000560841
0.000550147
0.00053768
0.000535186
0.000543956
0.000568107
0.000600927
0.000636323
0.000666893
0.000687969
0.000702045
0.000714514
0.000734556
0.000772893
0.000814914
0.00083028
0.000831782
0.000819654
0.000753605
0.000542652
0.000343524
0.000290324
0.000308874
0.000399446
0.00055689
0.000717739
0.000808039
0.000824471
0.000827186
0.000832362
0.000828307
0.000819204
0.000647542
0.000490974
1.70952e-10
1.58662e-09
5.40638e-09
1.4284e-08
3.08242e-08
5.78423e-08
9.21862e-08
1.35068e-07
1.89455e-07
2.61715e-07
3.71065e-07
5.25221e-07
7.38949e-07
1.03938e-06
1.42889e-06
1.86902e-06
2.40361e-06
3.36865e-06
4.89647e-06
7.80834e-06
1.27284e-05
1.98179e-05
2.9007e-05
3.94677e-05
4.90825e-05
5.77614e-05
6.59229e-05
7.49913e-05
8.55013e-05
9.71177e-05
0.000109357
0.00012072
0.000131929
0.000144399
0.000160379
0.000178069
0.000200983
0.000223938
0.000227928
0.000219371
0.000220713
0.00021726
0.000218948
0.000229612
0.00025001
0.000270935
0.000285766