/*--------------------------------*- C++ -*----------------------------------*\
| =========                 |                                                 |
| \\      /  F ield         | OpenFOAM: The Open Source CFD Toolbox           |
|  \\    /   O peration     | Version:  2.3.0                                 |
|   \\  /    A nd           | Web:      www.OpenFOAM.org                      |
|    \\/     M anipulation  |                                                 |
\*---------------------------------------------------------------------------*/
FoamFile
{
    version     2.0;
    format      ascii;
    class       volScalarField;
    location    "0.03";
    object      muSgs;
}
// * * * * * * * * * * * * * * * * * * * * * * * * * * * * * * * * * * * * * //

dimensions      [1 -1 -1 0 0 0 0];

internalField   nonuniform List<scalar> 
5000
(
5.97703e-08
8.45321e-08
1.06663e-07
2.98094e-08
3.36223e-08
3.87562e-08
2.35411e-08
1.45019e-08
5.07414e-08
4.95053e-08
6.31428e-08
5.41565e-08
4.44876e-08
5.15107e-08
6.39596e-08
1.92316e-08
2.78983e-08
4.43964e-08
5.60908e-08
8.84222e-09
3.02747e-08
4.98037e-08
1.9356e-08
1.58557e-08
3.98865e-08
2.9624e-08
1.86265e-08
1.12889e-08
2.72411e-08
4.91463e-09
1.09078e-08
2.83893e-08
7.43006e-08
6.66067e-08
8.99536e-09
8.3145e-09
1.65164e-08
2.43429e-08
3.26501e-08
3.01141e-08
3.205e-08
5.08014e-08
2.9256e-08
3.16453e-08
3.38295e-08
2.74218e-08
2.17955e-08
2.80028e-08
3.40715e-08
1.12099e-07
1.63278e-07
3.02294e-08
2.55707e-08
1.52697e-08
2.46228e-08
1.20814e-08
1.5085e-08
1.3208e-08
1.03397e-08
1.80066e-08
1.04602e-08
2.51461e-08
7.84306e-09
5.57061e-08
6.49012e-08
7.52563e-08
7.30411e-08
9.28968e-08
9.26689e-08
1.12704e-07
1.32636e-07
3.25782e-08
1.39581e-08
2.10701e-08
2.04026e-08
1.89652e-08
1.86928e-08
2.46397e-08
2.38184e-08
4.16286e-08
2.91378e-08
1.51229e-08
1.35774e-08
3.25878e-08
4.83455e-08
4.11299e-08
3.52557e-08
5.15853e-08
6.94753e-08
5.64917e-08
8.7293e-08
8.12011e-08
8.01629e-08
7.01227e-08
5.29047e-08
5.52752e-08
2.65079e-08
1.49202e-08
6.8675e-08
9.32076e-08
8.14757e-08
1.31332e-07
1.04984e-07
1.00919e-07
2.09058e-08
1.30486e-08
2.92547e-08
6.08849e-08
3.7369e-08
7.51915e-09
1.15864e-08
6.19381e-08
4.5444e-08
1.40692e-07
1.38142e-07
8.43034e-08
5.64258e-08
7.40495e-08
1.33508e-07
4.53331e-08
4.76906e-08
4.80957e-08
5.33106e-08
4.88091e-08
3.30177e-08
4.6604e-08
8.01923e-08
7.4297e-08
8.64955e-08
1.34867e-08
7.48064e-08
1.30081e-07
1.71476e-07
1.92251e-07
2.66563e-08
3.38316e-08
4.52781e-08
4.72681e-08
5.50334e-08
6.8206e-08
9.39584e-08
8.91712e-08
7.94146e-08
8.43396e-08
1.12958e-07
6.35948e-08
2.10212e-07
6.35783e-08
6.90034e-08
2.04859e-07
3.12295e-07
3.23518e-07
1.63128e-07
2.98501e-08
2.06273e-08
2.14209e-08
3.00463e-08
3.93239e-08
4.55132e-08
3.19224e-08
5.19011e-08
4.78052e-08
7.82658e-08
6.38272e-08
5.30944e-08
3.5846e-08
5.3168e-08
2.14128e-07
4.49834e-07
5.6823e-07
5.59481e-07
1.58531e-07
6.10029e-09
7.24306e-08
2.63939e-08
3.04304e-08
1.94134e-08
2.45335e-08
5.88002e-08
5.39373e-08
9.27908e-08
7.60068e-08
1.0033e-07
1.48255e-07
1.30678e-07
1.19195e-07
8.92395e-08
8.28903e-08
1.1108e-07
2.35544e-07
2.36735e-07
3.34506e-07
2.5663e-07
2.89194e-07
2.92277e-07
2.58226e-07
2.59509e-07
3.0435e-07
1.64839e-07
2.11042e-07
1.01593e-07
7.59135e-08
1.27402e-07
6.46235e-08
3.5224e-08
8.20369e-08
1.72159e-07
1.72979e-07
1.88156e-07
1.9739e-07
1.08369e-08
6.12674e-08
1.18378e-07
1.7264e-07
2.3846e-07
6.51016e-08
5.69404e-08
1.07726e-07
2.30652e-07
1.1028e-07
5.46092e-08
6.73833e-08
7.71274e-08
8.28438e-08
9.73282e-08
1.2041e-07
1.38181e-07
1.91663e-07
2.4924e-07
4.75627e-08
1.03224e-07
1.82277e-07
2.71365e-07
3.46428e-07
2.09414e-07
6.16522e-08
1.08446e-07
1.23912e-07
1.40261e-07
1.60613e-07
1.98302e-07
2.29849e-07
1.32252e-07
7.34528e-08
2.73027e-07
2.26952e-07
2.50209e-07
1.36537e-07
1.37795e-07
2.11312e-07
3.09595e-07
4.05963e-07
2.64033e-07
7.13804e-08
1.04285e-07
9.24341e-08
9.47307e-08
8.80404e-08
9.91332e-08
1.0655e-07
8.71162e-08
7.96819e-08
6.0842e-08
5.98984e-08
4.58159e-08
3.27123e-08
7.44693e-08
1.5379e-07
4.17269e-07
8.18584e-07
1.05572e-06
6.45218e-07
2.78642e-07
2.64865e-07
8.44753e-08
6.12067e-08
5.68986e-08
6.78296e-08
7.1972e-08
9.35081e-08
1.17768e-07
1.56861e-07
1.92789e-07
2.41996e-07
3.21323e-07
2.38083e-07
1.30461e-07
7.55208e-08
1.401e-07
3.52985e-07
2.59144e-07
1.71133e-07
3.79672e-07
4.14762e-07
4.02607e-07
3.31501e-07
3.15371e-07
2.93991e-07
2.6089e-07
2.76402e-07
3.06604e-07
1.92048e-07
2.33647e-07
1.80906e-07
1.23436e-07
2.97577e-08
1.34054e-07
2.64895e-07
3.15713e-07
4.03124e-07
2.80346e-07
2.16639e-07
1.89486e-07
2.37532e-07
1.68022e-07
2.40839e-07
1.67214e-07
1.75289e-07
1.93417e-07
2.31773e-07
1.14149e-07
5.74928e-08
1.91074e-08
2.90002e-08
9.84204e-09
4.48425e-08
1.18237e-07
2.51246e-07
3.20853e-07
1.5269e-07
1.96694e-07
2.68967e-07
3.39348e-07
4.42421e-07
3.7037e-07
9.2582e-08
1.02899e-08
2.72847e-08
5.36575e-08
1.12123e-07
1.91202e-07
2.76833e-07
2.53778e-07
1.20693e-07
1.82791e-07
4.73167e-07
9.92953e-07
6.4057e-07
4.94689e-07
3.66743e-07
4.6132e-07
5.36741e-07
3.45935e-07
1.95105e-07
1.52242e-07
1.17002e-07
1.09181e-07
1.0764e-07
1.08936e-07
1.08914e-07
1.09473e-07
8.08877e-08
6.94181e-08
5.76246e-08
4.8628e-08
3.71235e-08
6.64306e-08
1.39345e-07
3.19413e-07
5.91368e-07
1.09588e-06
1.66643e-06
8.67958e-07
4.87343e-07
8.02503e-08
5.79459e-08
4.51521e-08
5.04881e-08
4.89388e-08
6.58717e-08
1.21744e-07
1.63894e-07
1.79831e-07
3.08883e-07
4.45813e-07
4.16048e-07
3.47304e-07
2.02182e-07
1.9273e-07
2.78521e-07
2.79714e-07
2.83397e-07
2.17022e-07
2.09937e-07
1.85952e-07
1.75281e-07
1.55093e-07
1.54461e-07
1.23484e-07
1.68871e-07
5.77312e-07
4.31833e-07
4.30004e-07
2.89025e-07
6.79875e-08
3.75619e-08
1.67558e-07
2.31333e-07
3.389e-07
3.17564e-07
2.71628e-07
2.82541e-07
1.53111e-07
2.83144e-07
3.07241e-07
6.10645e-07
3.81892e-08
1.92155e-07
2.75599e-07
2.86794e-07
1.32444e-07
2.76162e-08
4.97603e-08
7.08003e-08
8.24608e-08
3.71788e-08
1.29393e-07
4.29139e-07
5.46183e-07
3.00396e-07
2.20278e-07
3.36583e-07
3.89131e-07
5.1599e-07
4.84547e-07
2.63553e-07
1.03318e-07
8.52632e-08
7.57002e-08
7.24862e-08
8.69246e-08
1.11406e-07
1.25119e-07
6.43956e-08
9.22861e-08
3.40157e-07
7.51996e-07
1.30254e-06
1.42318e-06
1.11579e-06
7.20654e-07
1.04765e-06
4.51002e-07
2.12665e-07
1.07192e-07
6.77094e-08
5.3762e-08
4.87391e-08
5.07619e-08
6.15924e-08
4.93206e-08
5.08701e-08
4.59323e-08
5.4293e-08
7.04578e-08
7.19873e-08
7.38747e-08
1.62945e-07
2.92443e-07
3.58637e-07
7.03087e-07
2.16095e-06
7.72345e-07
1.45886e-06
5.21652e-08
2.28051e-08
5.41817e-08
9.03449e-08
5.75072e-08
6.4213e-08
1.43843e-07
1.57534e-07
2.44045e-07
3.91946e-07
6.16373e-07
7.17524e-07
6.11671e-07
4.47689e-07
3.15178e-07
3.62478e-07
3.69326e-07
2.61846e-07
1.4173e-07
9.74743e-08
8.07116e-08
7.76082e-08
7.137e-08
6.69459e-08
4.65853e-08
6.24912e-08
3.24024e-07
4.9721e-07
7.39929e-08
2.86594e-07
3.91754e-07
3.80895e-07
4.22958e-07
2.24045e-07
1.66672e-07
4.57504e-07
6.53902e-07
6.05261e-08
1.85378e-07
4.92981e-07
5.06454e-07
4.9451e-07
1.36561e-07
2.7353e-07
3.13181e-07
3.49687e-07
2.26072e-07
2.06723e-07
1.31898e-07
1.36034e-07
1.37177e-07
8.51157e-08
1.5301e-07
3.30342e-07
1.45557e-06
8.68601e-07
4.78386e-07
3.85056e-07
4.51054e-07
6.73587e-07
5.85778e-07
4.50581e-07
1.80268e-07
6.907e-08
4.05813e-08
3.72487e-08
3.50969e-08
4.80798e-08
7.08642e-08
5.6106e-08
9.12351e-08
1.84832e-07
2.22371e-07
5.50642e-07
1.0793e-06
1.74062e-06
1.26242e-06
2.19119e-06
4.48034e-07
3.02154e-07
9.13073e-08
4.9529e-08
3.12406e-08
2.62077e-08
2.60425e-08
2.741e-08
4.19549e-08
2.58574e-08
3.24281e-08
5.20457e-08
7.17307e-08
9.40897e-08
1.39186e-07
2.0124e-07
2.09697e-07
1.95981e-07
4.22331e-07
1.4204e-06
2.63075e-06
1.37371e-06
1.06661e-07
2.86472e-08
8.09608e-08
1.60651e-07
1.9964e-07
1.84071e-07
1.49074e-07
1.41656e-07
2.31876e-07
4.38581e-07
7.8285e-07
1.0474e-06
1.08972e-06
8.15161e-07
5.38201e-07
4.69565e-07
4.35677e-07
3.21497e-07
1.82386e-07
1.21818e-07
7.29698e-08
7.008e-08
6.23192e-08
6.02373e-08
2.6788e-08
7.05322e-09
1.53548e-06
6.64086e-07
6.49198e-07
3.44226e-07
1.28366e-07
1.1708e-07
7.55946e-08
9.37145e-08
1.00075e-07
3.38212e-07
5.54999e-07
1.1343e-07
2.83865e-07
3.42789e-07
8.97079e-07
1.21647e-06
3.62097e-07
4.43948e-07
4.20343e-07
5.10157e-07
1.84681e-07
4.60659e-08
9.7695e-08
5.78687e-08
4.82655e-08
4.02507e-08
5.75416e-08
1.04861e-07
3.19295e-07
2.94086e-06
1.43848e-06
1.12426e-06
5.12182e-07
8.48911e-07
7.59784e-07
5.73473e-07
2.09505e-07
8.6004e-08
4.54424e-08
3.15807e-08
3.38731e-08
4.50493e-08
5.30851e-08
4.48571e-08
1.08311e-07
1.81061e-07
1.26393e-07
2.32458e-07
5.34016e-07
1.16085e-06
1.88345e-06
2.17791e-06
7.33147e-07
1.58873e-07
6.24437e-08
3.1534e-08
1.9098e-08
1.55612e-08
1.55023e-08
1.56749e-08
1.42594e-08
1.67438e-08
2.43717e-08
4.29158e-08
7.88771e-08
1.69532e-07
2.07746e-07
2.65814e-07
2.17805e-07
2.09279e-07
1.86859e-07
4.37213e-07
1.99252e-06
1.78748e-06
6.11441e-07
2.19618e-07
7.786e-08
7.09651e-08
4.96942e-08
4.66455e-08
6.72051e-08
7.15213e-08
1.43059e-07
3.29284e-07
7.3391e-07
1.11044e-06
1.51736e-06
1.51586e-06
1.00826e-06
6.89843e-07
5.61753e-07
3.9977e-07
1.85748e-07
6.48301e-08
5.05806e-08
5.07399e-08
2.87036e-08
2.48718e-08
2.39156e-08
3.37114e-08
1.40919e-06
3.82843e-07
4.70653e-07
6.37364e-07
5.50675e-07
5.55028e-07
4.35844e-07
4.42267e-07
2.35296e-07
4.29528e-07
6.29027e-07
5.5945e-07
3.58928e-07
2.73551e-07
3.08546e-07
2.66149e-06
1.47533e-06
6.31848e-07
3.46371e-07
5.07907e-07
2.95549e-07
2.40552e-07
7.53242e-08
9.21684e-08
4.49274e-08
2.39622e-08
6.37798e-08
7.35752e-08
9.56704e-08
2.65716e-07
2.02961e-06
2.71765e-06
1.75312e-06
1.77349e-06
1.27524e-06
6.98877e-07
2.76055e-07
1.17637e-07
5.86631e-08
3.64051e-08
3.20734e-08
4.24973e-08
5.651e-08
4.00139e-08
1.67732e-07
1.66605e-07
2.09865e-07
3.3899e-07
8.45972e-08
6.9171e-07
1.83193e-06
4.63619e-07
7.32858e-07
1.53746e-07
6.16078e-08
3.02485e-08
1.77717e-08
1.37728e-08
1.24397e-08
1.37349e-08
1.43448e-08
1.501e-08
2.15837e-08
5.1361e-08
1.24406e-07
2.6103e-07
3.52218e-07
2.39843e-07
2.80038e-07
3.61124e-07
3.31451e-07
3.38214e-07
1.4608e-06
1.96061e-06
4.90375e-07
3.12335e-07
7.62887e-08
6.66316e-08
7.16928e-08
6.24041e-08
5.07302e-08
6.75057e-08
8.10023e-08
1.76065e-07
4.32081e-07
8.00397e-07
1.26095e-06
1.83087e-06
1.78129e-06
1.19586e-06
7.64306e-07
4.14758e-07
1.72891e-07
7.05002e-08
4.11296e-08
3.95392e-08
2.95569e-08
2.83555e-08
2.16338e-08
4.03981e-08
4.40622e-07
4.55078e-07
5.02085e-07
3.56338e-07
2.91099e-07
2.74056e-07
3.80353e-07
1.31017e-07
2.66482e-07
5.01975e-07
7.63376e-07
4.88797e-07
1.53906e-07
1.83408e-07
1.37547e-07
1.62282e-07
1.99402e-06
1.72804e-06
1.29376e-06
7.3357e-07
5.55782e-07
3.66556e-07
1.20278e-07
9.59975e-08
8.66937e-08
5.50792e-08
5.73583e-08
7.92057e-08
9.16559e-08
1.58027e-07
1.00778e-06
2.02795e-06
2.93524e-06
3.68731e-06
2.05641e-06
7.16658e-07
2.78105e-07
1.10216e-07
4.63714e-08
2.59104e-08
3.07454e-08
6.39941e-08
5.98108e-08
7.64277e-08
1.52449e-07
2.17677e-07
1.02238e-07
2.10671e-07
1.4899e-07
4.85365e-07
1.42281e-06
8.7439e-07
1.80671e-06
2.21361e-07
6.53605e-08
3.2764e-08
1.90694e-08
1.50788e-08
1.35355e-08
1.26398e-08
1.43394e-08
1.72275e-08
2.90328e-08
6.80759e-08
1.7811e-07
3.63248e-07
5.34362e-07
5.36118e-07
6.57643e-07
5.51522e-07
7.18403e-07
9.95956e-07
2.01665e-06
1.84404e-06
5.13481e-07
1.22253e-07
6.90171e-08
7.2593e-08
5.85714e-08
4.53764e-08
6.97101e-08
5.5219e-08
6.0298e-08
1.11805e-07
1.84972e-07
3.83071e-07
6.47802e-07
1.37583e-06
2.1345e-06
1.66922e-06
1.30888e-06
4.2134e-07
1.69795e-07
5.74799e-08
3.51273e-08
3.98623e-08
2.45549e-08
2.72795e-08
3.40685e-08
8.13405e-08
4.86795e-07
1.03783e-07
3.46549e-07
5.67483e-07
7.95567e-07
1.01168e-06
2.15917e-06
2.39944e-06
2.48804e-07
3.73358e-07
8.32616e-07
3.80297e-07
1.64443e-07
8.77434e-08
9.63079e-08
1.17073e-07
1.17647e-06
1.16984e-06
1.436e-06
1.22765e-06
1.42919e-06
4.09724e-07
1.69509e-07
1.21138e-07
1.07538e-07
8.31275e-08
7.77163e-08
1.2542e-07
1.1249e-07
2.70409e-07
6.88031e-07
8.53037e-07
2.34366e-06
2.04295e-06
3.46835e-06
6.94787e-07
2.89947e-07
1.02282e-07
3.92908e-08
2.03748e-08
3.1025e-08
6.28073e-08
1.34156e-07
3.22358e-08
2.45971e-07
6.33123e-07
1.82461e-07
1.70977e-07
2.89192e-07
2.42632e-07
1.44177e-06
1.75576e-06
1.89776e-06
2.08539e-07
6.58673e-08
3.70962e-08
2.08644e-08
1.39309e-08
1.22545e-08
1.43852e-08
1.91232e-08
2.59483e-08
3.85376e-08
1.03404e-07
2.49748e-07
5.04065e-07
7.08273e-07
9.28211e-07
9.06255e-07
9.9023e-07
1.40645e-06
2.05432e-06
3.01715e-06
2.19903e-06
6.0105e-07
5.47667e-08
6.7026e-08
6.07378e-08
5.41308e-08
5.20537e-08
5.35437e-08
7.61693e-08
1.14193e-07
1.6419e-07
2.50249e-07
3.77453e-07
8.81206e-08
6.61749e-07
1.98803e-06
1.78228e-06
2.00796e-06
3.94468e-07
1.72201e-07
6.88222e-08
4.59288e-08
2.98772e-08
3.65636e-08
3.30627e-08
5.65173e-08
1.20903e-07
3.99843e-07
9.57507e-07
8.62348e-07
6.60099e-07
7.10884e-07
7.52775e-07
9.08682e-07
5.73716e-07
2.29929e-06
1.59487e-06
1.72146e-06
5.6538e-07
3.07862e-07
1.41855e-07
1.40969e-07
1.54964e-07
2.84625e-07
8.76096e-07
1.14514e-06
1.47803e-06
1.97837e-06
5.41774e-07
2.63698e-07
2.34264e-07
2.26883e-07
1.82269e-07
1.45236e-07
3.00426e-07
3.82652e-07
6.05084e-07
4.96636e-07
2.59505e-07
1.28408e-06
2.38829e-06
2.75025e-06
7.56201e-07
2.90039e-07
9.59704e-08
3.43019e-08
2.14764e-08
3.29301e-08
7.20494e-08
7.87749e-08
3.69415e-08
3.80365e-07
2.96947e-07
5.50198e-07
5.73718e-07
2.22546e-07
1.64589e-07
1.26456e-06
2.4369e-06
1.70751e-06
2.85851e-07
7.62961e-08
3.87927e-08
2.32667e-08
1.80593e-08
1.4591e-08
1.94239e-08
2.93616e-08
3.8609e-08
5.79346e-08
1.56333e-07
3.34483e-07
6.25946e-07
7.65486e-07
1.19043e-06
1.31985e-06
1.98462e-06
2.43413e-06
3.29603e-06
2.84263e-06
1.34912e-06
2.83469e-07
7.14496e-08
6.02161e-08
6.18531e-08
7.32434e-08
9.20994e-08
1.74609e-07
2.55045e-07
3.40188e-07
4.18283e-07
4.86673e-07
4.21529e-07
2.07353e-07
3.63189e-07
1.38361e-06
1.76057e-06
1.98366e-06
5.00973e-07
2.00245e-07
6.7155e-08
3.81259e-08
2.82231e-08
3.28661e-08
4.11053e-08
8.63122e-08
1.61467e-07
1.48133e-07
4.16793e-07
3.6213e-07
3.81705e-07
4.1912e-07
4.87051e-07
5.86657e-07
6.47495e-07
6.03818e-07
1.30443e-06
1.53216e-06
7.32835e-07
3.62251e-07
1.98627e-07
2.97339e-07
4.35332e-07
6.72287e-07
1.06458e-06
1.35085e-06
1.91519e-06
1.36726e-06
3.76426e-07
2.3555e-07
2.79157e-07
2.77188e-07
2.32726e-07
1.5582e-07
4.08103e-07
9.79755e-07
5.41528e-07
5.74392e-07
5.3834e-07
1.08444e-06
2.64354e-06
2.91983e-06
1.04575e-06
2.55359e-07
8.96797e-08
2.99821e-08
2.23323e-08
3.14555e-08
1.00924e-07
1.56192e-07
2.86914e-07
7.94214e-07
8.49717e-07
7.88241e-07
4.48389e-07
1.44878e-07
2.07467e-07
1.20942e-06
2.73733e-06
1.62259e-06
3.26426e-07
8.21024e-08
4.14714e-08
2.29012e-08
1.64376e-08
1.45748e-08
2.96697e-08
4.54061e-08
5.12204e-08
9.9899e-08
2.16865e-07
3.83317e-07
5.95385e-07
1.20194e-06
1.4102e-06
2.2071e-06
2.51506e-06
2.52834e-06
2.16207e-06
9.66493e-07
5.21002e-07
2.50782e-07
6.94739e-08
8.7156e-08
1.49446e-07
2.49092e-07
3.97575e-07
5.133e-07
5.78673e-07
6.24546e-07
6.19659e-07
5.8997e-07
5.62238e-07
4.20426e-07
4.91447e-07
1.01071e-06
2.11717e-06
1.93944e-06
6.39473e-07
1.88011e-07
7.69747e-08
4.37442e-08
3.2758e-08
3.87315e-08
5.57255e-08
1.36366e-07
1.69067e-07
1.74983e-07
1.01107e-08
2.47451e-08
7.21367e-08
1.64659e-07
3.19863e-07
4.56667e-07
7.09078e-07
8.16505e-07
1.82333e-06
1.02005e-06
7.20429e-07
4.38752e-07
3.23435e-07
5.00648e-07
8.50886e-07
1.22518e-06
1.32039e-06
1.60572e-06
1.40389e-06
5.81174e-07
2.88154e-07
2.73629e-07
2.73086e-07
2.55989e-07
2.51263e-07
1.38397e-07
5.67301e-07
1.29409e-06
9.53135e-07
8.14878e-07
6.94587e-07
5.19812e-07
2.73492e-06
2.65129e-06
9.21543e-07
2.1231e-07
7.43585e-08
2.63014e-08
2.32045e-08
3.86629e-08
1.39504e-07
1.2674e-07
2.71323e-07
1.57012e-06
9.93856e-07
7.11119e-07
5.94536e-07
1.66668e-07
2.45143e-07
1.62275e-06
3.10696e-06
1.17914e-06
2.67563e-07
7.74907e-08
3.92865e-08
2.55523e-08
2.0262e-08
2.57881e-08
4.80875e-08
6.22761e-08
1.09297e-07
1.62686e-07
2.61586e-07
3.7919e-07
6.51118e-07
9.34833e-07
1.41884e-06
1.93057e-06
1.71226e-06
1.45779e-06
9.85475e-07
3.33476e-07
2.24079e-07
1.8877e-07
1.77394e-07
3.34048e-07
5.45354e-07
6.93027e-07
8.05097e-07
8.32318e-07
7.85652e-07
7.52833e-07
7.29473e-07
6.68806e-07
6.24332e-07
5.70022e-07
5.6329e-07
7.1139e-07
1.97655e-06
1.74464e-06
8.74243e-07
2.35887e-07
8.06852e-08
4.56523e-08
3.84442e-08
4.41943e-08
8.0833e-08
1.52906e-07
1.82121e-07
6.34879e-08
4.28974e-08
1.11771e-07
1.11478e-07
1.13104e-07
1.90588e-07
3.58572e-07
4.42805e-07
7.14204e-07
7.28953e-07
8.53376e-07
5.86896e-07
5.05395e-07
1.69835e-07
6.18401e-07
9.00577e-07
8.50495e-07
8.92889e-07
6.5641e-07
6.52075e-07
3.93797e-07
4.05165e-07
3.01026e-07
2.90276e-07
4.0152e-07
4.01088e-07
4.69761e-07
7.51724e-07
1.44697e-06
1.61341e-06
9.08774e-07
8.81475e-07
1.14462e-06
3.17547e-06
1.88297e-06
6.87823e-07
1.7492e-07
5.12608e-08
2.49329e-08
2.82922e-08
6.31328e-08
1.20279e-07
2.50134e-07
1.04287e-06
1.24144e-06
1.29325e-06
1.27378e-06
5.74584e-07
2.51598e-07
4.1279e-07
2.03951e-06
3.15799e-06
1.43898e-06
2.2645e-07
7.03608e-08
3.62706e-08
2.6065e-08
2.39718e-08
4.58409e-08
6.93237e-08
1.01258e-07
1.82221e-07
1.98413e-07
2.83667e-07
3.9166e-07
6.1063e-07
1.12493e-06
1.66188e-06
2.2237e-06
1.45129e-06
7.4124e-07
3.51549e-07
1.2775e-07
1.99389e-07
3.06876e-07
5.06567e-07
7.5797e-07
8.57719e-07
9.61616e-07
9.35649e-07
8.6451e-07
7.66896e-07
7.937e-07
8.89811e-07
8.13372e-07
8.14708e-07
7.86592e-07
7.10295e-07
9.27305e-07
1.74845e-06
1.3924e-06
9.72723e-07
2.5793e-07
9.19556e-08
4.9254e-08
4.18627e-08
5.48761e-08
1.02784e-07
1.75397e-07
1.66376e-07
2.11167e-08
2.05401e-08
1.32024e-08
3.53912e-08
8.35609e-08
1.68996e-07
2.55529e-07
3.84578e-07
4.08746e-07
2.03303e-07
3.07895e-07
2.69146e-07
3.03657e-07
5.99985e-07
6.18793e-07
7.74957e-07
6.6702e-07
7.16373e-07
4.49756e-07
3.94564e-07
3.30767e-07
2.85857e-07
3.40213e-07
4.39349e-07
4.56988e-07
3.832e-07
3.19686e-07
6.76414e-07
9.62793e-07
1.90492e-06
1.37225e-06
1.17044e-06
2.43356e-06
4.17672e-06
2.75669e-06
5.45332e-07
1.51932e-07
4.7553e-08
3.07194e-08
6.47082e-08
6.41074e-08
2.40837e-07
3.78761e-07
1.00692e-06
1.54745e-06
1.58133e-06
1.16262e-06
7.90283e-07
5.9904e-07
7.49817e-07
2.57916e-06
2.60582e-06
1.20846e-06
2.01619e-07
6.711e-08
3.47344e-08
2.73297e-08
3.52775e-08
6.92609e-08
1.03473e-07
1.90949e-07
2.07934e-07
2.24019e-07
2.79173e-07
3.91341e-07
5.54693e-07
1.05118e-06
1.83084e-06
1.92486e-06
1.17679e-06
7.25987e-07
3.72467e-07
1.85414e-07
2.89099e-07
6.23978e-07
9.20361e-07
1.00399e-06
9.95787e-07
9.07242e-07
7.74286e-07
7.35084e-07
7.73964e-07
1.00216e-06
1.165e-06
1.12922e-06
1.0377e-06
9.25542e-07
8.48194e-07
8.8706e-07
1.74402e-06
1.39846e-06
1.01354e-06
3.13568e-07
1.02938e-07
5.30304e-08
5.11155e-08
7.59282e-08
1.37596e-07
1.58378e-07
1.88283e-07
3.67991e-08
8.33273e-08
6.85119e-08
4.86941e-08
8.23698e-08
1.43871e-07
2.21878e-07
3.02095e-07
4.15091e-07
3.64402e-07
4.13884e-07
1.83163e-07
3.67293e-07
3.82426e-07
5.30763e-07
4.72135e-07
5.01616e-07
3.94939e-07
2.05274e-07
1.88736e-07
1.67855e-07
1.74481e-07
4.28523e-07
5.2946e-07
4.41211e-07
4.08053e-07
4.70229e-07
7.48752e-07
1.14549e-06
2.13377e-06
2.22827e-06
1.4275e-06
3.42052e-06
3.88117e-06
1.41567e-06
3.9657e-07
1.38329e-07
5.20608e-08
4.62836e-08
6.45925e-08
1.39837e-07
4.32811e-07
4.42138e-07
1.04467e-06
1.43264e-06
1.1829e-06
1.05282e-06
6.47187e-07
6.69877e-07
1.0979e-06
2.77949e-06
1.73678e-06
7.3136e-07
1.85204e-07
6.66363e-08
3.69636e-08
3.38134e-08
6.2557e-08
9.58633e-08
1.74939e-07
2.55113e-07
2.26688e-07
2.26116e-07
2.62155e-07
3.67807e-07
5.37306e-07
8.17543e-07
1.24132e-06
1.5889e-06
1.38195e-06
7.15378e-07
4.07488e-07
3.98162e-07
8.36847e-07
9.8002e-07
1.01325e-06
9.38014e-07
8.05323e-07
6.54088e-07
5.33329e-07
7.2069e-07
9.823e-07
1.23887e-06
1.36121e-06
1.30666e-06
1.1237e-06
1.0513e-06
8.89584e-07
8.79366e-07
1.58472e-06
1.3009e-06
1.06427e-06
3.60628e-07
1.1609e-07
6.1941e-08
6.64892e-08
1.07683e-07
1.62541e-07
1.58581e-07
1.82195e-07
1.07128e-07
1.18256e-08
1.32694e-08
2.63336e-08
5.98424e-08
1.14382e-07
1.9687e-07
2.78855e-07
3.17719e-07
3.89e-07
3.45821e-07
4.34801e-07
4.34741e-07
5.28347e-07
4.08289e-07
3.83809e-07
3.73315e-07
2.8962e-07
1.29079e-07
1.03558e-07
3.05268e-07
4.73682e-07
6.3451e-07
5.45235e-07
4.91521e-07
4.06581e-07
4.0653e-07
6.82602e-07
1.03111e-06
1.77492e-06
1.98135e-06
1.20112e-06
1.36106e-06
1.26019e-06
6.65651e-07
2.98046e-07
1.06155e-07
4.80057e-08
6.90747e-08
1.08588e-07
3.48506e-07
4.38686e-07
5.03334e-07
1.02947e-06
1.73001e-06
1.8085e-06
8.92069e-07
4.89204e-07
4.73616e-07
1.37915e-06
2.54285e-06
2.43042e-06
5.62711e-07
1.60918e-07
6.86135e-08
3.77733e-08
5.65947e-08
1.06842e-07
1.65913e-07
3.03113e-07
2.86196e-07
2.27923e-07
2.25671e-07
2.62442e-07
3.65398e-07
4.87349e-07
8.34081e-07
1.06547e-06
1.29635e-06
1.03162e-06
8.3528e-07
6.56176e-07
6.45771e-07
8.09266e-07
9.57305e-07
8.20587e-07
6.74658e-07
4.92172e-07
4.65965e-07
6.37755e-07
9.14197e-07
1.20448e-06
1.39869e-06
1.40393e-06
1.31945e-06
1.18489e-06
1.18525e-06
9.28604e-07
9.12506e-07
1.59797e-06
1.67991e-06
9.84971e-07
3.94133e-07
1.21135e-07
7.25186e-08
9.36202e-08
1.40995e-07
1.64995e-07
1.74193e-07
1.91802e-07
5.92269e-08
4.44733e-08
3.65113e-08
4.80432e-08
9.11741e-08
1.27126e-07
1.76061e-07
2.0851e-07
2.78516e-07
2.7107e-07
3.39938e-07
3.87909e-07
3.80014e-07
3.00619e-07
2.88479e-07
2.88933e-07
2.65032e-07
2.16099e-07
1.43047e-07
8.98368e-08
3.41409e-07
5.79067e-07
5.65182e-07
5.48023e-07
5.01803e-07
4.55298e-07
4.8941e-07
5.22838e-07
8.50022e-07
1.72418e-06
2.06941e-06
8.49684e-07
3.99011e-07
4.01151e-07
3.55999e-07
2.00559e-07
8.7843e-08
8.59335e-08
1.67272e-07
4.28793e-07
4.52397e-07
4.23951e-07
4.79022e-07
1.02321e-06
1.68579e-06
2.0071e-06
1.04037e-06
9.05249e-07
5.38114e-07
1.56855e-06
1.95561e-06
1.55895e-06
4.57283e-07
1.5181e-07
6.18679e-08
4.64631e-08
1.01018e-07
1.56082e-07
2.82123e-07
3.95347e-07
2.66638e-07
2.30154e-07
2.32892e-07
2.76004e-07
3.61249e-07
4.47821e-07
6.00942e-07
8.8869e-07
8.68276e-07
9.44676e-07
7.51615e-07
8.00774e-07
8.19536e-07
8.48977e-07
6.74643e-07
5.31786e-07
4.03827e-07
3.42394e-07
4.99243e-07
8.2732e-07
1.1272e-06
1.34537e-06
1.40963e-06
1.41129e-06
1.40386e-06
1.27501e-06
1.27056e-06
1.02904e-06
1.0207e-06
1.50617e-06
1.56467e-06
1.03012e-06
3.97395e-07
1.34811e-07
9.31668e-08
1.19497e-07
1.68475e-07
1.67117e-07
2.01071e-07
2.35781e-07
3.12301e-08
1.2443e-08
6.43556e-08
1.11731e-07
1.50701e-07
1.66928e-07
1.90502e-07
1.92821e-07
1.90696e-07
1.90953e-07
2.08178e-07
2.80497e-07
3.83253e-07
3.37061e-07
3.21028e-07
2.54676e-07
2.32265e-07
1.92639e-07
2.11664e-07
4.1225e-07
4.92837e-07
5.92679e-07
6.22344e-07
5.90349e-07
5.09772e-07
4.41339e-07
5.29118e-07
6.13559e-07
6.05145e-07
1.26816e-06
1.31002e-06
9.21513e-07
2.63566e-07
2.35809e-07
2.55871e-07
1.49832e-07
1.37025e-07
2.25517e-07
4.8825e-07
6.43167e-07
5.1718e-07
3.47814e-07
3.71927e-07
9.58928e-07
1.47265e-06
2.54759e-06
1.27054e-06
1.05426e-06
1.22296e-06
2.47559e-06
1.426e-06
8.28397e-07
4.143e-07
1.3189e-07
5.24355e-08
7.62443e-08
1.36243e-07
2.5968e-07
4.45954e-07
3.65698e-07
2.62804e-07
2.33879e-07
2.56738e-07
2.82981e-07
3.55772e-07
4.34111e-07
5.30992e-07
6.72701e-07
7.36073e-07
7.35773e-07
6.76592e-07
7.30566e-07
5.6626e-07
4.41772e-07
4.10815e-07
3.15811e-07
3.00536e-07
3.44247e-07
7.11437e-07
9.83683e-07
1.22367e-06
1.30814e-06
1.3661e-06
1.43337e-06
1.5275e-06
1.43319e-06
1.37069e-06
1.22365e-06
1.08864e-06
1.49629e-06
1.54069e-06
9.98409e-07
3.8922e-07
1.48737e-07
1.07778e-07
1.46317e-07
1.76727e-07
1.69908e-07
2.49425e-07
2.6615e-07
6.23678e-07
3.41082e-07
3.70757e-07
3.06805e-07
2.8033e-07
2.58257e-07
2.33982e-07
1.91358e-07
1.48931e-07
8.3836e-08
1.58762e-07
2.39902e-07
3.52003e-07
3.06346e-07
3.10472e-07
2.62673e-07
1.99545e-07
1.41599e-07
2.18006e-07
3.94661e-07
4.90672e-07
5.85219e-07
5.18758e-07
4.94365e-07
4.29712e-07
4.48378e-07
4.9844e-07
6.10215e-07
4.7498e-07
5.6863e-07
1.02032e-06
7.90489e-07
2.75882e-07
2.03899e-07
2.53568e-07
1.6549e-07
1.51739e-07
6.15602e-07
8.43448e-07
6.29143e-07
5.91679e-07
5.02424e-07
4.01491e-07
8.30778e-07
1.24396e-06
2.05177e-06
1.99126e-06
1.53474e-06
1.69199e-06
2.47921e-06
1.29274e-06
7.38337e-07
3.63366e-07
1.13773e-07
7.33619e-08
1.36372e-07
2.52181e-07
4.74929e-07
4.90739e-07
3.15723e-07
2.62034e-07
2.50077e-07
3.03566e-07
3.50758e-07
3.74819e-07
4.02769e-07
4.8059e-07
5.64894e-07
5.21334e-07
5.65225e-07
5.47688e-07
5.10714e-07
3.77049e-07
3.65165e-07
2.788e-07
2.62101e-07
3.23945e-07
5.52463e-07
7.81478e-07
1.05515e-06
1.21165e-06
1.22992e-06
1.30226e-06
1.39769e-06
1.61167e-06
1.58504e-06
1.50936e-06
1.44667e-06
1.23021e-06
1.50731e-06
1.58376e-06
9.67488e-07
3.84517e-07
1.68493e-07
1.35569e-07
1.78768e-07
1.79804e-07
1.94936e-07
3.15614e-07
2.97298e-07
5.10489e-07
5.72849e-07
5.10527e-07
4.19032e-07
3.73947e-07
3.48709e-07
2.98628e-07
2.30437e-07
1.62512e-07
5.75063e-08
1.45606e-07
2.94606e-07
4.82237e-07
4.77895e-07
4.7834e-07
3.75703e-07
2.76249e-07
1.81519e-07
3.04103e-07
5.0049e-07
6.24628e-07
6.78842e-07
5.50336e-07
4.37767e-07
3.68274e-07
3.94932e-07
4.51918e-07
5.8257e-07
4.85545e-07
4.36063e-07
9.45457e-07
2.28963e-07
2.63942e-07
3.18186e-07
3.45186e-07
3.80692e-07
7.52072e-07
1.01264e-06
8.82763e-07
7.02163e-07
6.90938e-07
6.80385e-07
6.11604e-07
6.80145e-07
1.27527e-06
2.73958e-06
2.22773e-06
1.30271e-06
1.23285e-06
1.43709e-06
9.78849e-07
5.91228e-07
2.82185e-07
1.21074e-07
1.48433e-07
2.89107e-07
5.28149e-07
6.38528e-07
4.08057e-07
3.28069e-07
3.21698e-07
3.37582e-07
3.83819e-07
3.86787e-07
3.97099e-07
4.16944e-07
4.64761e-07
5.03043e-07
5.7628e-07
4.68827e-07
3.99065e-07
4.23088e-07
3.1426e-07
2.42315e-07
2.97543e-07
3.31354e-07
4.74109e-07
7.96502e-07
9.6048e-07
1.11637e-06
1.24289e-06
1.16402e-06
1.34331e-06
1.55409e-06
1.708e-06
1.80594e-06
1.78314e-06
1.96518e-06
1.7921e-06
1.59456e-06
1.69518e-06
9.26908e-07
3.76043e-07
1.94576e-07
1.66915e-07
2.02114e-07
1.9827e-07
2.71368e-07
4.36659e-07
3.73856e-07
1.18042e-07
2.06491e-07
2.30722e-07
2.86039e-07
3.12435e-07
3.35116e-07
3.24516e-07
2.57115e-07
1.82239e-07
1.01217e-07
2.26349e-07
3.65993e-07
5.78021e-07
5.66464e-07
5.69273e-07
4.60699e-07
3.33796e-07
2.30101e-07
3.61357e-07
5.33763e-07
6.06808e-07
5.77084e-07
4.24923e-07
3.73545e-07
3.85329e-07
3.58495e-07
4.05421e-07
4.72781e-07
4.79386e-07
4.39375e-07
4.6682e-07
1.60586e-07
4.75925e-07
3.50078e-07
4.02646e-07
8.51079e-07
1.2277e-06
1.06864e-06
9.51231e-07
8.34662e-07
8.12832e-07
7.20774e-07
7.28548e-07
5.64393e-07
1.02121e-06
1.98323e-06
2.3771e-06
1.4466e-06
1.91044e-07
5.20197e-07
5.12425e-07
3.83643e-07
2.32134e-07
1.38388e-07
2.42765e-07
4.96679e-07
7.38568e-07
5.69196e-07
4.00519e-07
4.0031e-07
4.39739e-07
4.54254e-07
4.78335e-07
4.68786e-07
4.3375e-07
4.18764e-07
4.42548e-07
4.4746e-07
3.96879e-07
3.49964e-07
3.62488e-07
3.13094e-07
3.13369e-07
3.54508e-07
3.76484e-07
4.66755e-07
5.96665e-07
8.9676e-07
9.02338e-07
1.24961e-06
1.21625e-06
1.21804e-06
1.44535e-06
1.59836e-06
1.74485e-06
1.99123e-06
2.08694e-06
2.34518e-06
2.53011e-06
1.94787e-06
1.57305e-06
7.40844e-07
3.44477e-07
2.18815e-07
2.14196e-07
2.28605e-07
2.7021e-07
4.56197e-07
6.11749e-07
4.14372e-07
1.3123e-07
4.70336e-08
1.03776e-07
2.8029e-08
4.15077e-08
6.91484e-08
5.80136e-08
4.67029e-08
4.31487e-08
3.72638e-08
2.16298e-07
3.54016e-07
5.43227e-07
5.38001e-07
5.42289e-07
4.61052e-07
3.49074e-07
3.09879e-07
3.92767e-07
4.69883e-07
4.40266e-07
4.16527e-07
3.20731e-07
3.10866e-07
3.93449e-07
3.69713e-07
4.16972e-07
4.34027e-07
4.58799e-07
4.54039e-07
4.59321e-07
6.26801e-07
5.24223e-07
5.08343e-07
9.99591e-07
1.42351e-06
1.22342e-06
1.00514e-06
1.02099e-06
9.80702e-07
9.57058e-07
8.51998e-07
7.72659e-07
6.23388e-07
7.36821e-07
1.63524e-06
2.21667e-06
1.44063e-06
3.2659e-07
2.33105e-07
2.91097e-07
3.16054e-07
2.62971e-07
2.07672e-07
4.23161e-07
8.33464e-07
7.63388e-07
5.29233e-07
4.95389e-07
5.44786e-07
5.95872e-07
5.92245e-07
5.5131e-07
4.99348e-07
4.55854e-07
4.39501e-07
4.31264e-07
4.15954e-07
3.48641e-07
2.42541e-07
2.24181e-07
2.13905e-07
3.33329e-07
3.91802e-07
4.74538e-07
5.45461e-07
7.24999e-07
7.7311e-07
9.54423e-07
1.17862e-06
1.15648e-06
1.22296e-06
1.46188e-06
1.69385e-06
1.84853e-06
1.90057e-06
2.09136e-06
2.3779e-06
2.49209e-06
2.06781e-06
1.11629e-06
5.79988e-07
3.32817e-07
2.56479e-07
2.58573e-07
2.78859e-07
4.64663e-07
7.17661e-07
8.28942e-07
5.30971e-07
8.85745e-08
6.30627e-08
1.3326e-07
1.36056e-07
2.04335e-07
6.51041e-08
8.23874e-08
8.3701e-08
9.68317e-08
4.95218e-08
1.66329e-07
2.15637e-07
3.04669e-07
2.95079e-07
2.94898e-07
2.36991e-07
1.9326e-07
1.52352e-07
1.78134e-07
1.48662e-07
1.14206e-07
1.71256e-07
2.43815e-07
2.66978e-07
3.6228e-07
3.64182e-07
3.82004e-07
3.73092e-07
4.049e-07
3.7947e-07
4.20455e-07
6.3721e-07
9.96733e-07
1.12105e-06
1.01338e-06
1.07154e-06
8.68284e-07
9.28569e-07
1.02605e-06
9.87004e-07
9.91571e-07
8.89089e-07
9.52137e-07
7.82513e-07
6.08534e-07
9.80041e-07
9.72353e-07
1.09327e-06
3.36459e-07
2.14083e-07
1.73326e-07
2.58725e-07
2.17979e-07
2.91164e-07
9.37954e-07
1.07651e-06
6.67844e-07
6.31133e-07
7.33538e-07
7.48849e-07
8.22857e-07
7.16157e-07
5.45838e-07
5.0997e-07
4.73221e-07
4.53483e-07
4.46348e-07
3.9731e-07
3.11256e-07
1.97601e-07
1.43335e-07
1.73026e-07
3.18872e-07
4.03954e-07
5.14734e-07
6.00103e-07
6.99789e-07
7.43851e-07
9.09457e-07
1.02218e-06
1.06584e-06
1.17713e-06
1.45995e-06
1.57417e-06
1.83732e-06
1.77665e-06
1.90351e-06
1.87936e-06
1.73304e-06
1.28136e-06
7.43046e-07
4.6081e-07
3.4202e-07
3.20491e-07
3.06935e-07
4.69683e-07
8.41758e-07
1.08353e-06
1.06518e-06
5.2284e-07
1.35624e-07
1.04336e-07
1.95758e-07
2.09982e-07
1.05689e-07
9.75524e-08
1.00204e-07
1.14096e-07
1.35319e-07
4.79755e-08
7.50337e-08
1.25947e-07
1.24932e-07
1.02048e-07
1.00329e-07
3.47423e-08
3.51081e-08
2.01737e-08
2.29421e-08
2.18757e-08
5.92114e-08
1.4474e-07
2.22651e-07
2.60677e-07
3.03452e-07
3.37383e-07
3.52062e-07
3.62809e-07
3.4856e-07
3.373e-07
4.00813e-07
4.71886e-07
5.21927e-07
7.02797e-07
5.80157e-07
5.57829e-07
6.69689e-07
7.74979e-07
8.70916e-07
8.50715e-07
8.88573e-07
8.42537e-07
9.13726e-07
9.25627e-07
6.52847e-07
6.73051e-07
8.24906e-07
9.39952e-07
2.79147e-07
2.27477e-07