/*--------------------------------*- C++ -*----------------------------------*\
| =========                 |                                                 |
| \\      /  F ield         | OpenFOAM: The Open Source CFD Toolbox           |
|  \\    /   O peration     | Version:  2.3.0                                 |
|   \\  /    A nd           | Web:      www.OpenFOAM.org                      |
|    \\/     M anipulation  |                                                 |
\*---------------------------------------------------------------------------*/
FoamFile
{
    version     2.0;
    format      ascii;
    class       surfaceScalarField;
    location    "0.03";
    object      phi;
}
// * * * * * * * * * * * * * * * * * * * * * * * * * * * * * * * * * * * * * //

dimensions      [1 0 -1 0 0 0 0];

internalField   nonuniform List<scalar> 
9850
(
1.48763e-06
1.47255e-07
1.39034e-06
1.18606e-07
1.28728e-06
1.10185e-07
1.23362e-06
5.60835e-08
1.2271e-06
8.67364e-09
1.23295e-06
-1.85849e-09
1.24361e-06
-6.08321e-09
1.24681e-06
9.96197e-10
1.25088e-06
-1.77221e-09
1.25766e-06
-6.10126e-09
1.27572e-06
-1.96445e-08
1.30462e-06
-3.22188e-08
1.33317e-06
-3.31409e-08
1.36657e-06
-3.91709e-08
1.39922e-06
-3.8413e-08
1.38491e-06
8.60146e-09
1.35923e-06
2.17961e-08
1.30548e-06
5.1713e-08
1.2458e-06
5.98565e-08
1.22049e-06
2.75363e-08
1.23237e-06
-8.40151e-09
1.25148e-06
-1.52384e-08
1.27678e-06
-2.20481e-08
1.29809e-06
-1.86692e-08
1.31098e-06
-1.0326e-08
1.32481e-06
-1.03858e-08
1.35298e-06
-2.28018e-08
1.40238e-06
-4.183e-08
1.48034e-06
-6.84828e-08
1.47772e-06
1.47111e-08
1.45407e-06
3.74786e-08
1.38444e-06
8.26522e-08
1.25639e-06
1.39262e-07
1.12953e-06
1.3564e-07
1.06288e-06
7.41204e-08
1.06452e-06
4.18943e-09
1.07582e-06
-6.05788e-09
1.09734e-06
-1.71461e-08
1.13057e-06
-3.0432e-08
1.17764e-06
-4.61687e-08
1.24018e-06
-6.36061e-08
1.31087e-06
-7.25859e-08
1.37048e-06
-6.1661e-08
1.41946e-06
-5.09012e-08
1.49592e-06
-8.03924e-08
1.56985e-06
-8.11139e-08
1.5938e-06
-3.39606e-08
1.57727e-06
6.58769e-09
1.4969e-06
7.58633e-08
1.29354e-06
2.03053e-07
1.0827e-06
2.1391e-07
1.00711e-06
7.63752e-08
9.87494e-07
2.15558e-08
9.8849e-07
-1.10773e-09
9.93243e-07
-5.24826e-09
1.00409e-06
-1.16656e-08
1.02594e-06
-2.27749e-08
1.05729e-06
-3.18902e-08
1.09562e-06
-3.83631e-08
1.13452e-06
-3.86173e-08
1.16726e-06
-3.285e-08
1.20424e-06
-3.80824e-08
1.23515e-06
-3.46117e-08
1.28106e-06
-5.00225e-08
1.33704e-06
-6.0132e-08
1.40767e-06
-7.49744e-08
1.48899e-06
-7.61896e-08
1.54708e-06
-4.47661e-08
1.51466e-06
4.75113e-08
1.33074e-06
1.9481e-07
1.07676e-06
2.54554e-07
9.60419e-07
1.14868e-07
9.30349e-07
2.47356e-08
9.69373e-07
-4.44195e-08
9.87177e-07
-1.99264e-08
1.01481e-06
-3.31639e-08
1.03613e-06
-3.16772e-08
1.06546e-06
-4.12038e-08
1.12054e-06
-5.632e-08
1.1918e-06
-6.78086e-08
1.24463e-06
-4.73707e-08
1.26615e-06
-1.66601e-08
1.27661e-06
-1.45255e-09
1.29278e-06
-2.71909e-09
1.30966e-06
-5.9682e-09
1.31353e-06
-1.37679e-09
1.30474e-06
8.74316e-09
1.27747e-06
2.76176e-08
1.23645e-06
4.12666e-08
1.19599e-06
4.08152e-08
1.14542e-06
5.00454e-08
1.10116e-06
4.34073e-08
1.07969e-06
1.97918e-08
1.0606e-06
1.75789e-08
1.05161e-06
7.02672e-09
1.04016e-06
7.87093e-09
1.03536e-06
-6.00634e-10
1.00392e-06
2.38719e-08
9.77188e-07
1.7127e-08
1.02063e-09
4.2034e-06
1.87633e-07
4.14174e-06
2.43978e-07
3.95473e-06
3.16698e-07
3.7664e-06
2.51058e-07
3.70471e-06
7.66761e-08
3.71728e-06
-3.548e-09
3.77287e-06
-4.84647e-08
3.85175e-06
-6.616e-08
3.9104e-06
-5.3249e-08
3.91324e-06
-7.54409e-09
3.90908e-06
-2.04607e-08
3.93541e-06
-6.85378e-08
3.96759e-06
-7.93065e-08
4.05439e-06
-1.43236e-07
4.21376e-06
-2.15233e-07
4.24263e-06
-3.91484e-08
4.21266e-06
3.93111e-08
4.14127e-06
1.16219e-07
4.02423e-06
1.76777e-07
3.93323e-06
1.24355e-07
3.94788e-06
-1.26676e-08
3.97009e-06
-2.57553e-08
3.99902e-06
-4.08721e-08
4.02578e-06
-3.69855e-08
4.04373e-06
-1.99947e-08
4.06537e-06
-2.10853e-08
4.13054e-06
-7.14151e-08
4.28158e-06
-1.70898e-07
4.50461e-06
-2.63671e-07
4.47999e-06
7.38872e-08
4.376e-06
1.80246e-07
4.1282e-06
3.67924e-07
3.7219e-06
5.77939e-07
3.35025e-06
5.33001e-07
3.15784e-06
2.88185e-07
3.16221e-06
1.70866e-08
3.18567e-06
-1.41229e-08
3.22532e-06
-4.41051e-08
3.29318e-06
-9.03535e-08
3.40848e-06
-1.59505e-07
3.58396e-06
-2.42297e-07
3.80094e-06
-2.9514e-07
3.99514e-06
-2.61686e-07
4.14261e-06
-2.04102e-07
4.36374e-06
-3.12911e-07
4.63472e-06
-3.74221e-07
4.78597e-06
-2.12503e-07
4.77901e-06
-9.46414e-09
4.63888e-06
2.06314e-07
4.30349e-06
5.39248e-07
3.84857e-06
6.78745e-07
3.42371e-06
5.03626e-07
3.08148e-06
3.66986e-07
2.96995e-06
1.03221e-07
2.9429e-06
1.0287e-08
2.93834e-06
-2.33189e-08
2.96504e-06
-6.77747e-08
3.01788e-06
-1.02226e-07
3.07941e-06
-1.15809e-07
3.12223e-06
-9.88136e-08
3.13986e-06
-7.52681e-08
3.12298e-06
-6.36774e-08
3.06781e-06
-5.19297e-08
2.95985e-06
-4.7959e-08
2.76339e-06
-1.09136e-08
2.47947e-06
-1.02474e-08
2.36024e-06
-1.30927e-07
2.52272e-06
-1.67415e-07
2.76803e-06
-5.57204e-08
2.91465e-06
3.38436e-07
2.83953e-06
7.09651e-07
2.79915e-06
3.54631e-07
2.7418e-06
7.61281e-08
2.84634e-06
-1.67861e-07
2.84461e-06
-4.01644e-08
2.87326e-06
-9.85959e-08
2.89431e-06
-1.03122e-07
2.91625e-06
-1.22831e-07
2.97312e-06
-1.73566e-07
3.10475e-06
-2.18557e-07
3.25613e-06
-1.95588e-07
3.35944e-06
-1.00741e-07
3.46112e-06
-4.93403e-08
3.60668e-06
-5.33043e-08
3.75333e-06
-5.10916e-08
3.81812e-06
-2.75239e-08
3.80023e-06
2.76211e-08
3.72389e-06
1.02042e-07
3.56606e-06
1.97223e-07
3.33981e-06
2.69081e-07
3.11865e-06
2.70165e-07
2.99719e-06
1.59988e-07
2.962e-06
4.10199e-08
2.92179e-06
3.51966e-08
2.8577e-06
4.00158e-08
2.78897e-06
3.67938e-08
2.73098e-06
9.84757e-09
2.69633e-06
7.00309e-09
2.66663e-06
-7.11055e-09
-3.93353e-08
6.73056e-06
3.98914e-07
6.85597e-06
1.8465e-07
6.97395e-06
2.20256e-07
7.00064e-06
2.31243e-07
6.96491e-06
1.2252e-07
6.87277e-06
1.05198e-07
6.69607e-06
1.48049e-07
6.42178e-06
2.26115e-07
6.11679e-06
2.62492e-07
5.83511e-06
2.73581e-07
5.71394e-06
9.10618e-08
5.76136e-06
-1.33015e-07
5.86898e-06
-2.10705e-07
6.15442e-06
-4.58279e-07
6.56671e-06
-6.57754e-07
6.70801e-06
-2.14175e-07
6.65943e-06
6.65641e-08
6.51734e-06
2.44778e-07
6.26536e-06
4.26452e-07
6.05864e-06
3.38303e-07
6.0527e-06
1.07293e-08
6.08475e-06
-3.84158e-08
6.13534e-06
-7.35749e-08
6.18684e-06
-7.25983e-08
6.23771e-06
-5.5045e-08
6.32179e-06
-8.52168e-08
6.52116e-06
-2.42533e-07
6.91771e-06
-5.33107e-07
7.42004e-06
-7.22588e-07
7.45651e-06
8.87229e-08
7.29469e-06
4.00006e-07
6.90527e-06
8.14086e-07
6.33213e-06
1.20066e-06
5.76842e-06
1.13742e-06
5.31897e-06
7.7143e-07
5.22605e-06
1.37892e-07
5.23425e-06
1.96427e-09
5.27347e-06
-6.41835e-08
5.36779e-06
-1.74107e-07
5.55473e-06
-3.45707e-07
5.85556e-06
-5.48847e-07
6.23287e-06
-6.78699e-07
6.56106e-06
-5.94909e-07
6.80305e-06
-4.53108e-07
7.15701e-06
-6.82852e-07
7.60756e-06
-8.48504e-07
7.89424e-06
-5.14935e-07
7.9388e-06
-5.81766e-08
7.74397e-06
4.03184e-07
7.25093e-06
1.04046e-06
6.56647e-06
1.38302e-06
5.84801e-06
1.22322e-06
5.13976e-06
1.07097e-06
4.82241e-06
3.81406e-07
4.65851e-06
1.07097e-07
4.50476e-06
3.2239e-08
4.36234e-06
-4.43632e-08
4.24471e-06
-1.0301e-07
4.16179e-06
-1.29263e-07
4.10327e-06
-1.15965e-07
3.99696e-06
-4.95846e-08
3.81057e-06
4.4105e-09
3.53566e-06
4.45279e-08
3.21591e-06
4.3889e-08
2.88301e-06
6.72031e-08
2.58146e-06
2.99077e-08
2.46711e-06
-2.26256e-07
2.64074e-06
-3.79451e-07
2.90662e-06
-2.99071e-07
3.27829e-06
1.4119e-07
3.98194e-06
1.02281e-06
4.58129e-06
6.00105e-07
4.58625e-06
1.27463e-07
4.76971e-06
-3.65961e-07
4.72906e-06
-4.11801e-08
4.72297e-06
-1.73411e-07
4.70617e-06
-1.84728e-07
4.6914e-06
-2.21769e-07
4.69224e-06
-3.02622e-07
4.77581e-06
-4.06257e-07
4.96705e-06
-3.9982e-07
5.13523e-06
-2.62852e-07
5.26629e-06
-1.35653e-07
5.48407e-06
-1.48721e-07
5.78959e-06
-1.39358e-07
6.00029e-06
-5.31083e-08
6.00581e-06
5.94058e-08
5.86361e-06
2.42992e-07
5.59089e-06
4.654e-07
5.15531e-06
7.05576e-07
4.69259e-06
7.2028e-07
4.42609e-06
3.97385e-07
4.28735e-06
1.18173e-07
4.08263e-06
1.3923e-07
3.83613e-06
1.51125e-07
3.57352e-06
1.45373e-07
3.33063e-06
1.02237e-07
3.13828e-06
6.88603e-08
2.93411e-06
8.19119e-08
-7.27159e-09
9.94294e-06
2.36833e-07
9.76389e-06
4.2324e-07
9.53082e-06
4.64475e-07
9.38217e-06
3.82907e-07
9.31222e-06
2.02874e-07
9.2806e-06
1.56366e-07
9.23257e-06
2.19015e-07
9.08203e-06
3.97152e-07
8.83545e-06
5.20515e-07
8.53126e-06
5.74418e-07
8.33905e-06
2.68115e-07
8.44712e-06
-2.65898e-07
8.62523e-06
-4.22997e-07
8.98884e-06
-8.64937e-07
9.46535e-06
-1.17924e-06
9.67852e-06
-4.79112e-07
9.57566e-06
1.40276e-07
9.39476e-06
4.03573e-07
9.08116e-06
7.32527e-07
8.75172e-06
6.74755e-07
8.58603e-06
2.004e-07
8.52607e-06
4.79154e-08
8.53988e-06
-6.01205e-08
8.57465e-06
-8.17217e-08
8.61813e-06
-7.2806e-08
8.74198e-06
-1.78673e-07
9.05952e-06
-5.20848e-07
9.68869e-06
-1.11893e-06
1.04379e-05
-1.41743e-06
1.05705e-05
1.64433e-08
1.03895e-05
6.48601e-07
9.9444e-06
1.32545e-06
9.27928e-06
1.92616e-06
8.54709e-06
1.92284e-06
7.71609e-06
1.64577e-06
7.35382e-06
5.35597e-07
7.28099e-06
1.01432e-07
7.29391e-06
-6.57216e-08
7.36555e-06
-2.59673e-07
7.53223e-06
-5.53538e-07
7.81217e-06
-8.6874e-07
8.21187e-06
-1.07028e-06
8.6001e-06
-9.21148e-07
8.74432e-06
-5.79337e-07
8.84528e-06
-8.37174e-07
9.31538e-06
-1.24645e-06
1.00129e-05
-8.13743e-07
1.05214e-05
-1.54119e-07
1.05034e-05
6.64318e-07
9.88616e-06
1.79886e-06
8.97577e-06
2.38446e-06
8.07716e-06
2.14063e-06
7.0154e-06
2.10126e-06
6.34975e-06
9.03993e-07
5.82438e-06
3.9564e-07
5.32054e-06
2.51045e-07
4.8532e-06
1.31127e-07
4.47282e-06
2.30896e-08
4.18769e-06
-4.44718e-08
3.97686e-06
-5.41377e-08
3.81236e-06
-9.05438e-09
3.61324e-06
6.52555e-08
3.35666e-06
1.17054e-07
3.09692e-06
9.17854e-08
2.89417e-06
5.26472e-08
2.77725e-06
-5.62165e-08
2.69717e-06
-3.17937e-07
2.82205e-06
-6.11352e-07
3.0729e-06
-5.11861e-07
3.49745e-06
-1.15611e-07
4.32199e-06
9.37319e-07
5.59805e-06
1.49459e-06
6.36016e-06
-5.21517e-08
6.76569e-06
-7.43775e-07
6.65152e-06
5.18082e-08
6.5784e-06
-2.09841e-07
6.49572e-06
-2.63066e-07
6.40598e-06
-3.19465e-07
6.30244e-06
-4.14205e-07
6.26606e-06
-5.74545e-07
6.42895e-06
-6.25913e-07
6.65916e-06
-4.8057e-07
6.82451e-06
-2.5665e-07
7.06796e-06
-2.63457e-07
7.46942e-06
-2.65672e-07
7.85932e-06
-9.49547e-08
7.98806e-06
8.07055e-08
7.82926e-06
4.16572e-07
7.48173e-06
8.08888e-07
6.93255e-06
1.24524e-06
6.29044e-06
1.33561e-06
5.68471e-06
9.30804e-07
5.1888e-06
4.68193e-07
4.76617e-06
3.51296e-07
4.34923e-06
3.25914e-07
3.96137e-06
2.95665e-07
3.62055e-06
2.30293e-07
3.34562e-06
1.66576e-07
3.08965e-06
1.79933e-07
5.11995e-10
1.13026e-05
2.22959e-07
1.17244e-05
-2.99324e-08
1.2064e-05
1.02073e-07
1.22847e-05
1.54164e-07
1.24963e-05
-2.46307e-10
1.27287e-05
-5.59523e-08
1.28137e-05
1.56238e-07
1.26804e-05
5.50943e-07
1.24658e-05
7.44828e-07
1.2093e-05
9.40215e-07
1.15401e-05
7.96944e-07
1.14048e-05
-1.6383e-07
1.1419e-05
-4.82043e-07
1.16495e-05
-1.15207e-06
1.2146e-05
-1.73631e-06
1.25513e-05
-9.48511e-07
1.2403e-05
2.4576e-07
1.21711e-05
6.03615e-07
1.17133e-05
1.17667e-06
1.1291e-05
1.10415e-06
1.11213e-05
4.01371e-07
1.11278e-05
7.32507e-08
1.11592e-05
-5.2813e-08
1.1208e-05
-9.22795e-08
1.12608e-05
-8.78522e-08
1.13985e-05
-2.7543e-07
1.17706e-05
-8.47374e-07
1.25289e-05
-1.82911e-06
1.34911e-05
-2.31018e-06
1.38098e-05
-2.32701e-07
1.35948e-05
9.3403e-07
1.3045e-05
1.93832e-06
1.21983e-05
2.83522e-06
1.12597e-05
2.92568e-06
1.00891e-05
2.86557e-06
9.50278e-06
1.15738e-06
9.28542e-06
3.3112e-07
9.15457e-06
2.30301e-08
8.91297e-06
-1.67792e-07
8.4442e-06
-4.09909e-07
7.77731e-06
-6.87885e-07
7.31674e-06
-9.83861e-07
7.25209e-06
-8.7843e-07
7.01662e-06
-3.61782e-07
6.30242e-06
-4.60665e-07
5.88492e-06
-1.2171e-06
6.30453e-06
-8.41255e-07
7.22019e-06
-3.41464e-07
8.61703e-06
4.88658e-07
9.79893e-06
1.82271e-06
1.0189e-05
3.00785e-06
9.89721e-06
2.69697e-06
8.54396e-06
3.41581e-06
7.49944e-06
1.62679e-06
6.59535e-06
8.54838e-07
5.79219e-06
5.94726e-07
5.11318e-06
4.0175e-07
4.57441e-06
2.19811e-07
4.15731e-06
1.02764e-07
3.8458e-06
4.60164e-08
3.59392e-06
7.56286e-08
3.35559e-06
1.41364e-07
3.12083e-06
1.75385e-07
2.96094e-06
7.60096e-08
2.93484e-06
-6.51647e-08
2.92424e-06
-1.83946e-07
2.85306e-06
-4.56933e-07
3.04768e-06
-8.71773e-07
3.30542e-06
-7.43559e-07
3.58144e-06
-3.02213e-07
4.42262e-06
5.50132e-07
5.77349e-06
1.08811e-06
7.24627e-06
8.09841e-07
8.43274e-06
-1.45535e-06
8.34748e-06
1.68062e-07
8.27005e-06
-2.31586e-07
8.11909e-06
-3.35285e-07
7.91818e-06
-4.01182e-07
7.66725e-06
-4.88015e-07
7.43611e-06
-6.75549e-07
7.45239e-06
-8.35571e-07
7.6961e-06
-7.10108e-07
7.92755e-06
-4.35314e-07
8.22852e-06
-4.154e-07
8.77295e-06
-4.69601e-07
9.41868e-06
-2.06086e-07
9.76727e-06
8.26637e-08
9.63613e-06
6.2072e-07
9.17772e-06
1.27276e-06
8.46394e-06
1.93922e-06
7.6277e-06
2.12489e-06
6.8355e-06
1.60226e-06
6.16908e-06
9.03406e-07
5.53469e-06
6.72847e-07
4.93548e-06
5.91105e-07
4.39449e-06
5.22436e-07
3.92714e-06
4.25256e-07
3.54022e-06
3.20242e-07
3.15912e-06
3.55728e-07
6.82244e-08
1.27342e-05
3.08494e-07
1.28362e-05
-2.60687e-07
1.32812e-05
-4.08566e-07
1.39435e-05
-5.32211e-07
1.45497e-05
-6.0483e-07
1.51738e-05
-6.64193e-07
1.57222e-05
-3.7105e-07
1.57815e-05
5.08672e-07
1.55415e-05
9.91559e-07
1.47751e-05
1.69714e-06
1.35306e-05
2.00791e-06
1.29843e-05
3.40124e-07
1.30281e-05
-5.80785e-07
1.35135e-05
-1.70582e-06
1.43655e-05
-2.66315e-06
1.51053e-05
-1.7535e-06
1.50148e-05
2.81997e-07
1.47901e-05
7.89208e-07
1.42524e-05
1.69681e-06
1.37436e-05
1.62427e-06
1.34477e-05
7.3492e-07
1.34901e-05
7.18352e-08
1.35509e-05
-6.2136e-08
1.36215e-05
-1.10804e-07
1.36757e-05
-9.60195e-08
1.37976e-05
-3.62408e-07
1.40578e-05
-1.10255e-06
1.46774e-05
-2.45172e-06
1.58324e-05
-3.21788e-06
1.66783e-05
-8.10516e-07
1.66731e-05
1.10795e-06
1.60908e-05
2.61296e-06
1.49531e-05
4.04877e-06
1.37542e-05
4.20515e-06
1.23077e-05
4.36237e-06
1.15179e-05
1.96579e-06
1.10066e-05
7.95088e-07
1.04497e-05
3.56679e-07
9.58368e-06
2.24575e-07
8.39129e-06
4.07844e-08
7.10622e-06
-2.3635e-07
6.14481e-06
-7.11302e-07
5.64862e-06
-7.68596e-07
5.32911e-06
-2.93337e-07
5.12543e-06
-5.06971e-07
4.94589e-06
-1.18357e-06
4.77637e-06
-9.4692e-07
5.01205e-06
-5.79981e-07
5.75308e-06
4.82249e-08
7.32035e-06
1.41694e-06
9.71935e-06
4.20778e-06
1.10254e-05
2.28339e-06
9.68939e-06
4.67503e-06
8.46202e-06
2.39759e-06
7.24978e-06
1.43509e-06
6.24271e-06
1.02358e-06
5.43704e-06
7.18537e-07
4.79639e-06
4.60317e-07
4.28076e-06
2.88378e-07
3.85728e-06
2.07183e-07
3.51761e-06
1.96559e-07
3.23398e-06
2.36341e-07
3.01583e-06
2.1822e-07
2.94549e-06
2.46523e-08
2.94043e-06
-1.67636e-07
2.94503e-06
-3.62295e-07
3.07552e-06
-6.96818e-07
3.45692e-06
-1.26486e-06
3.78923e-06
-1.07367e-06
3.9348e-06
-4.35358e-07
4.35941e-06
2.91792e-07
5.32856e-06
8.73566e-07
6.9533e-06
8.6756e-07
9.30952e-06
-1.44083e-06
9.72674e-06
-5.05797e-08
9.71443e-06
-2.45358e-07
9.54985e-06
-4.12844e-07
9.25372e-06
-4.64881e-07
8.87814e-06
-5.2347e-07
8.4672e-06
-6.99849e-07
8.20044e-06
-9.48666e-07
8.2804e-06
-8.97584e-07
8.53779e-06
-6.57801e-07
8.81376e-06
-5.83744e-07
9.34314e-06
-6.89524e-07
1.02071e-05
-4.24928e-07
1.09958e-05
2.27676e-08
1.11683e-05
7.6557e-07
1.07529e-05
1.7594e-06
9.92958e-06
2.73829e-06
8.89016e-06
3.09902e-06
7.84826e-06
2.4686e-06
6.91923e-06
1.50121e-06
6.06544e-06
1.11185e-06
5.31899e-06
9.14876e-07
4.67813e-06
7.86665e-07
4.14086e-06
6.3667e-07
3.69709e-06
4.96262e-07
3.28795e-06
5.16406e-07
1.19123e-07
1.70999e-05
1.0638e-07
1.71054e-05
-5.07341e-07
1.70697e-05
-4.76329e-07
1.70662e-05
-5.66733e-07
1.70833e-05
-6.27143e-07
1.72917e-05
-8.61957e-07
1.76925e-05
-7.55914e-07
1.78896e-05
3.25514e-07
1.77295e-05
1.15718e-06
1.70612e-05
2.35333e-06
1.59063e-05
3.12085e-06
1.53076e-05
8.8814e-07
1.541e-05
-7.63056e-07
1.59491e-05
-2.34544e-06
1.69733e-05
-3.72032e-06
1.80723e-05
-2.7966e-06
1.81191e-05
2.3704e-07
1.77566e-05
1.14446e-06
1.68583e-05
2.59689e-06
1.59626e-05
2.55111e-06
1.5256e-05
1.48904e-06
1.52573e-05
1.1919e-07
1.53476e-05
-9.69792e-08
1.54998e-05
-2.17888e-07
1.56109e-05
-2.00103e-07
1.55222e-05
-3.49869e-07
1.47613e-05
-7.08797e-07
1.28304e-05
-1.64644e-06
1.23861e-05
-2.93571e-06
1.47427e-05
-1.81741e-06
1.67819e-05
5.00549e-07
1.7615e-05
2.73023e-06
1.69585e-05
5.31067e-06
1.59171e-05
5.61961e-06
1.43229e-05
6.02319e-06
1.32674e-05
2.99122e-06
1.23068e-05
1.54147e-06
1.11924e-05
9.63553e-07
9.78441e-06
8.15921e-07
8.25315e-06
6.06728e-07
6.86238e-06
2.17626e-07
5.8636e-06
-4.57297e-07
5.27132e-06
-6.68179e-07
4.93936e-06
-2.81521e-07
4.86262e-06
-6.33334e-07
4.78237e-06
-1.42745e-06
4.73053e-06
-1.11699e-06
4.86895e-06
-7.4592e-07
5.052e-06
-8.49733e-08
5.86084e-06
1.18342e-06
8.40709e-06
3.32441e-06
1.13105e-05
2.13938e-06
1.05088e-05
5.47323e-06
9.21939e-06
3.17229e-06
7.79652e-06
2.07778e-06
6.6274e-06
1.50295e-06
5.71325e-06
1.07518e-06
4.97964e-06
7.31791e-07
4.37197e-06
5.22479e-07
3.87242e-06
3.93709e-07
3.47638e-06
3.42318e-07
3.18447e-06
3.26403e-07
3.01705e-06
2.47294e-07
2.91231e-06
1.17276e-08
2.86691e-06
-2.90698e-07
3.06749e-06
-6.55668e-07
3.44665e-06
-1.08844e-06
3.90541e-06
-1.72564e-06
4.27603e-06
-1.44499e-06
4.48172e-06
-6.47633e-07
4.60612e-06
1.90478e-07
5.25632e-06
4.49127e-07
6.53626e-06
7.69572e-07
9.22185e-06
1.03178e-07
1.04499e-05
-3.57844e-07
1.06408e-05
-3.93406e-07
1.05724e-05
-5.46231e-07
1.02793e-05
-5.61011e-07
9.8609e-06
-5.68108e-07
9.37113e-06
-7.02089e-07
8.91094e-06
-9.60809e-07
8.67138e-06
-9.92911e-07
8.764e-06
-8.29243e-07
9.00194e-06
-7.60331e-07
9.28834e-06
-8.33869e-07
9.85803e-06
-5.97256e-07
1.08988e-05
-1.78827e-07
1.18525e-05
7.73307e-07
1.1971e-05
2.13263e-06
1.11572e-05
3.60211e-06
9.92805e-06
4.24369e-06
8.66248e-06
3.5049e-06
7.55595e-06
2.18399e-06
6.55711e-06
1.60002e-06
5.67878e-06
1.29586e-06
4.92384e-06
1.10191e-06
4.29517e-06
9.00248e-07
3.77409e-06
7.05556e-07
3.32189e-06
6.8444e-07
1.77435e-07
2.12062e-05
-2.07989e-06
2.11984e-05
-7.82216e-07
2.05746e-05
2.46397e-08
2.02129e-05
-2.53539e-07
2.03576e-05
-7.87383e-07
2.07285e-05
-1.23247e-06
2.09645e-05
-9.75015e-07
2.10228e-05
2.83075e-07
2.07273e-05
1.45895e-06
1.98942e-05
3.17143e-06
1.86056e-05
4.34738e-06
1.76454e-05
1.74133e-06
1.69964e-05
-3.71609e-07
1.58346e-05
-1.79567e-06
1.55048e-05
-3.59981e-06
1.74603e-05
-3.41022e-06
1.91211e-05
-4.34382e-07
1.97147e-05
1.14903e-06
1.92184e-05
3.41745e-06
1.84531e-05
3.51843e-06
1.75276e-05
2.48996e-06
1.73508e-05
3.1713e-07
1.7255e-05
-2.82533e-08
1.71798e-05
-2.24992e-07
1.68965e-05
-7.90519e-08
1.59698e-05
2.18786e-07
1.37656e-05
3.89172e-07
1.02786e-05
-1.35444e-07
7.89662e-06
-2.04557e-06
8.26034e-06
-2.17968e-06
9.95163e-06
-5.96228e-07
1.28395e-05
1.17454e-06
1.58176e-05
5.13941e-06
1.71846e-05
5.71517e-06
1.59754e-05
7.38281e-06
1.4673e-05
4.20678e-06
1.31916e-05
2.5655e-06
1.1534e-05
1.77413e-06
9.75694e-06
1.52276e-06
8.09112e-06
1.18235e-06
6.69318e-06
6.31022e-07
5.76025e-06
-2.85418e-07
5.26645e-06
-6.54222e-07
5.02147e-06
-2.95022e-07
4.90131e-06
-9.24545e-07
4.90987e-06
-1.65166e-06
5.1627e-06
-1.46276e-06
5.45229e-06
-1.04246e-06
5.44794e-06
-6.18069e-08
5.55631e-06
1.20481e-06
6.94259e-06
3.55633e-06
1.02826e-05
4.0163e-06
1.10012e-05
5.18221e-06
9.89796e-06
3.84143e-06
8.30884e-06
2.78826e-06
6.98141e-06
2.02796e-06
5.95566e-06
1.47096e-06
5.13653e-06
1.04792e-06
4.45629e-06
7.78582e-07
3.88714e-06
6.18395e-07
3.47069e-06
4.88295e-07
3.21988e-06
4.07864e-07
3.03005e-06
3.1106e-07
2.86077e-06
-1.32771e-08
2.92184e-06
-4.5705e-07
3.32484e-06
-1.07028e-06
3.87254e-06
-1.62842e-06
4.53763e-06
-2.32859e-06
4.99035e-06
-1.92614e-06
5.19283e-06
-9.24521e-07
5.30567e-06
3.21862e-08
5.3617e-06
4.17347e-07
6.01851e-06
5.96501e-07
9.05843e-06
1.13229e-06
1.08736e-05
-7.15066e-07
1.12539e-05
-6.95343e-07
1.1221e-05
-6.8688e-07
1.09045e-05
-6.56843e-07
1.04227e-05
-5.92463e-07
9.86376e-06
-6.66707e-07
9.31291e-06
-9.09643e-07
8.90297e-06
-9.89123e-07
8.70333e-06
-8.85455e-07
8.75976e-06
-9.35962e-07
8.96227e-06
-9.6187e-07
9.17059e-06
-6.60046e-07
9.71372e-06
-3.39552e-07
1.09029e-05
5.25072e-07
1.21764e-05
2.29031e-06
1.20597e-05
4.2784e-06
1.0754e-05
5.45061e-06
9.34813e-06
4.64077e-06
8.11014e-06
2.90794e-06
6.94275e-06
2.16148e-06
5.94345e-06
1.72733e-06
5.1107e-06
1.43737e-06
4.42446e-06
1.17472e-06
3.83133e-06
9.55757e-07
3.37565e-06
8.23414e-07
2.20882e-07
2.20039e-05
-1.81281e-06
2.21888e-05
-1.15056e-06
2.25846e-05
-4.86424e-07
2.31191e-05
-8.58672e-07
2.35596e-05
-1.25476e-06
2.37849e-05
-1.40499e-06
2.39088e-05
-9.38179e-07
2.38872e-05
3.9329e-07
2.33236e-05
2.05656e-06
2.18859e-05
4.58268e-06
1.99639e-05
6.13513e-06
1.81992e-05
3.21456e-06
1.59812e-05
1.04192e-06
1.26175e-05
-1.32395e-07
9.18263e-06
-2.26146e-06
9.02815e-06
-2.82857e-06
1.12272e-05
-1.61335e-06
1.42747e-05
3.67751e-07
1.69807e-05
2.68509e-06
1.84463e-05
3.49447e-06
1.80844e-05
3.04312e-06
1.75242e-05
7.64835e-07
1.66345e-05
4.09359e-07
1.56699e-05
1.60605e-07
1.47407e-05
3.20378e-07
1.33771e-05
8.94845e-07
1.12415e-05
1.20732e-06
8.88383e-06
4.94625e-07
7.18409e-06
-1.19013e-06
6.58243e-06
-2.18279e-06
7.19596e-06
-1.14136e-06
8.95176e-06
2.55773e-07
1.28204e-05
2.96746e-06
1.69188e-05
6.27445e-06
1.70118e-05
7.84211e-06
1.55041e-05
5.6712e-06
1.35922e-05
3.72785e-06
1.15104e-05
2.68417e-06
9.52312e-06
2.26758e-06
7.82339e-06
1.73551e-06
6.45896e-06
1.0177e-06
5.63299e-06
-1.83662e-07
5.32496e-06
-6.90381e-07
4.99373e-06
-4.11382e-07
4.8942e-06
-1.12101e-06
5.26914e-06
-2.14132e-06
5.58155e-06
-1.79367e-06
5.85126e-06
-1.30612e-06
5.92395e-06
-1.24032e-07
5.64269e-06
1.55643e-06
6.24936e-06
3.8754e-06
9.41097e-06
4.59947e-06
1.12531e-05
4.36272e-06
1.03706e-05
4.56923e-06
8.69319e-06
3.4883e-06
7.22334e-06
2.58185e-06
6.10281e-06
1.87892e-06
5.21572e-06
1.37937e-06
4.47584e-06
1.06254e-06
3.8846e-06
8.39373e-07
3.50526e-06
6.30832e-07
3.27167e-06
5.0733e-07
3.01988e-06
3.63642e-07
2.88446e-06
-3.12912e-08
3.07581e-06
-6.77496e-07
3.58044e-06
-1.56766e-06
4.38529e-06
-2.3546e-06
5.58224e-06
-3.25686e-06
6.32155e-06
-2.7387e-06
6.41903e-06
-1.21038e-06
6.48435e-06
-1.94261e-07
6.55604e-06
3.3707e-07
6.96484e-06
6.13874e-07
9.66809e-06
2.50295e-06
1.12042e-05
-1.1729e-06
1.14616e-05
-8.81117e-07
1.13284e-05
-7.919e-07
1.0912e-05
-7.09262e-07
1.0365e-05
-5.70869e-07
9.76061e-06
-5.92952e-07
9.1972e-06
-8.35264e-07
8.7812e-06
-9.59917e-07
8.51546e-06
-9.07658e-07
8.4384e-06
-1.06812e-06
8.629e-06
-1.17743e-06
8.82443e-06
-8.03047e-07
9.02737e-06
-4.00458e-07
9.70762e-06
2.88639e-07
1.1282e-05
2.05548e-06
1.21837e-05
5.10027e-06
1.1345e-05
6.32992e-06
9.88933e-06
5.82941e-06
8.55138e-06
3.64875e-06
7.25213e-06
2.76532e-06
6.14396e-06
2.1915e-06
5.2223e-06
1.82198e-06
4.47517e-06
1.46741e-06
3.83805e-06
1.22099e-06
3.41852e-06
9.19442e-07
2.64249e-07
2.23172e-05
4.71536e-07
2.14453e-05
-3.59807e-08
2.06634e-05
2.56702e-07
1.89701e-05
3.63481e-07
1.67024e-05
2.14378e-07
1.53989e-05
-2.62039e-07
1.68796e-05
-7.93705e-07
2.02235e-05
-3.5466e-07
2.22537e-05
1.61964e-06
2.23691e-05
5.14029e-06
2.10607e-05
7.49266e-06
1.87885e-05
5.07406e-06
1.53666e-05
3.00062e-06
1.12371e-05
1.54429e-06
7.9057e-06
-7.49612e-07
6.4613e-06
-2.46166e-06
6.89678e-06
-2.00286e-06
8.29748e-06
-4.58884e-07
1.1395e-05
1.47786e-06
1.55214e-05
3.40366e-06
1.63448e-05
2.68807e-06
1.51574e-05
1.55124e-06
1.31454e-05
1.21865e-06
1.13204e-05
8.28753e-07
1.02344e-05
7.35817e-07
9.43669e-06
1.10803e-06
8.73824e-06
1.11622e-06
7.83407e-06
4.67077e-07
6.60823e-06
-1.02724e-06
6.52373e-06
-2.41723e-06
6.98804e-06
-1.62896e-06
7.41723e-06
-4.09705e-08
9.12576e-06
2.55542e-06
1.36872e-05
6.13141e-06
1.7124e-05
6.51746e-06
1.57155e-05
6.98036e-06
1.35008e-05
4.93386e-06
1.11181e-05
3.62406e-06
9.068e-06
2.958e-06
7.40603e-06
2.21236e-06
6.12856e-06
1.3141e-06
5.52548e-06
-1.96003e-07
5.18948e-06
-9.12328e-07
4.7759e-06
-3.72614e-07
4.9844e-06
-1.47065e-06
5.74738e-06
-2.92031e-06
6.41084e-06
-2.41399e-06
6.83973e-06
-1.56735e-06
6.90563e-06
-2.17074e-07
6.33133e-06
2.15977e-06
6.41067e-06
4.0185e-06
9.07109e-06
5.42621e-06
1.12728e-05
4.54296e-06
1.05433e-05
5.15042e-06
8.93987e-06
4.10815e-06
7.36744e-06
3.14404e-06
6.16546e-06
2.3024e-06
5.22974e-06
1.70918e-06
4.46098e-06
1.3438e-06
3.88452e-06
1.04019e-06
3.53887e-06
7.88244e-07
3.25277e-06
5.95993e-07
3.00045e-06
4.32192e-07
2.97343e-06
-7.89419e-08
3.23045e-06
-9.30771e-07
3.87009e-06
-2.15933e-06
5.10685e-06
-3.32848e-06
6.7275e-06
-4.49935e-06
7.67045e-06
-3.66729e-06
8.04662e-06
-1.70433e-06
8.29475e-06
-5.35676e-07
8.35396e-06
3.29828e-07
8.58098e-06
8.56785e-07
1.06382e-05
3.99666e-06
1.13178e-05
-1.37881e-06
1.12385e-05
-8.00842e-07
1.08645e-05
-8.211e-07
1.0341e-05
-6.8574e-07
9.80421e-06
-5.3139e-07
9.28602e-06
-5.36426e-07
8.83843e-06
-8.0233e-07
8.53622e-06
-9.84921e-07
8.39734e-06
-1.02339e-06
8.42988e-06
-1.29271e-06
8.70741e-06
-1.52171e-06
8.92721e-06
-1.00809e-06
8.985e-06
-4.10116e-07
9.2814e-06
1.79668e-07
1.04754e-05
1.7177e-06
1.18637e-05
5.96948e-06
1.16937e-05
7.06631e-06
1.02644e-05
7.08017e-06
8.92046e-06
4.32498e-06
7.49373e-06
3.40915e-06
6.28242e-06
2.68698e-06
5.29724e-06
2.21832e-06
4.50445e-06
1.78073e-06
3.83747e-06
1.49923e-06
3.46249e-06
1.02841e-06
2.90742e-07
1.88348e-06
-3.05651e-07
2.21884e-06
-1.87866e-07
2.48066e-06
-4.06938e-08
2.56451e-06
9.56117e-08
2.69122e-06
-6.36672e-08
2.9945e-06
-5.4859e-07
3.69193e-06
-1.37541e-06
5.69702e-06
-1.8551e-06
9.61707e-06
-7.48612e-07
1.51731e-05
2.01556e-06
1.87965e-05
5.57422e-06
1.69415e-05
6.30575e-06
1.32253e-05
4.68773e-06
9.5878e-06
2.70032e-06
7.04903e-06
6.10337e-07
5.59993e-06
-1.85712e-06
5.74511e-06
-2.25395e-06
6.33205e-06
-9.95937e-07
7.33594e-06
1.06575e-06
1.02633e-05
2.7066e-06
1.16609e-05
2.62702e-06
1.06235e-05
2.32465e-06
8.87302e-06
1.665e-06
7.64688e-06
1.20183e-06
7.16395e-06
9.25209e-07
6.7794e-06
1.03193e-06
6.22831e-06
1.11257e-06
5.75274e-06
7.44088e-08
5.75222e-06
-1.33907e-06
6.53795e-06
-3.23672e-06
7.24757e-06
-2.34484e-06
7.42476e-06
-1.68262e-07
7.94821e-06
2.3707e-06
1.12808e-05
5.87808e-06
1.60868e-05
6.46552e-06
1.5291e-05
7.74877e-06
1.30309e-05
6.01367e-06
1.05158e-05
4.51765e-06
8.48913e-06
3.57548e-06
6.9331e-06
2.61368e-06
5.83438e-06
1.50719e-06
5.22292e-06
5.48317e-09
4.84557e-06
-9.96548e-07
4.83893e-06
-5.23826e-07
5.32087e-06
-1.96388e-06
6.60429e-06
-4.09611e-06
8.4002e-06
-3.74361e-06
9.21121e-06
-2.18079e-06
8.81977e-06
5.31316e-08
7.6009e-06
3.14869e-06
7.16911e-06
4.74332e-06
9.01187e-06
6.36377e-06
1.11954e-05
5.74301e-06
1.05975e-05
5.6554e-06
8.98819e-06
4.70197e-06
7.3558e-06
3.68087e-06
6.11083e-06
2.7272e-06
5.14713e-06
2.0389e-06
4.40056e-06
1.58585e-06
3.89212e-06
1.22913e-06
3.52018e-06
9.32513e-07
3.20511e-06
6.86388e-07
3.04096e-06
4.87948e-07
3.09096e-06
-1.50317e-07
3.37675e-06
-1.19964e-06
4.14528e-06
-2.79851e-06
5.53116e-06
-4.22631e-06
7.58673e-06
-5.87433e-06
9.2905e-06
-5.05481e-06
1.00252e-05
-2.62975e-06
1.03278e-05
-7.52082e-07
1.04677e-05
7.21124e-07
1.05715e-05
1.69269e-06
1.1517e-05
3.8446e-06
1.11327e-05
-9.06293e-07
1.05306e-05
-6.33214e-07
9.91437e-06
-7.2908e-07
9.45221e-06
-6.51428e-07
9.10715e-06
-5.5998e-07
8.82436e-06
-5.88544e-07
8.62367e-06
-8.82167e-07
8.52514e-06
-1.12285e-06
8.54655e-06
-1.23824e-06
8.68587e-06
-1.57671e-06
9.01787e-06
-1.94152e-06
9.31703e-06
-1.31595e-06
9.41744e-06
-5.02674e-07
9.51347e-06
1.82748e-07
1.01201e-05
1.48427e-06
1.14002e-05
6.66064e-06
1.18255e-05
8.05479e-06
1.05618e-05
8.14555e-06
9.16891e-06
5.06006e-06
7.63521e-06
4.08157e-06
6.33957e-06
3.20268e-06
5.29851e-06
2.62436e-06
4.47818e-06
2.09967e-06
3.83109e-06
1.76489e-06
3.50454e-06
1.10797e-06
3.11997e-07
1.07739e-06
-3.98053e-07
1.22902e-06
-3.41175e-07
1.37513e-06
-1.96484e-07
1.58721e-06
-1.35108e-07
1.86054e-06
-3.47643e-07
2.20914e-06
-9.00516e-07
2.64583e-06
-1.80467e-06
3.31172e-06
-2.45188e-06
5.33605e-06
-2.37865e-06
9.02124e-06
-1.02218e-07
1.3122e-05
4.27142e-06
1.25303e-05
6.0214e-06
9.64595e-06
5.57475e-06
7.19709e-06
3.72897e-06
5.53351e-06
9.06928e-07
4.84095e-06
-1.41669e-06
5.18727e-06
-2.50181e-06
6.45565e-06
-1.93576e-06
7.52049e-06
7.83651e-07
8.87603e-06
3.80829e-06
8.48111e-06
3.27414e-06
7.18666e-06
2.87022e-06
5.94877e-06
2.15987e-06
5.05717e-06
1.31958e-06
4.63366e-06
9.90512e-07
4.39788e-06
9.30252e-07
4.20221e-06
8.50661e-07
4.58436e-06
-4.34906e-07
5.54237e-06
-2.38623e-06
7.19833e-06
-4.49599e-06
8.24124e-06
-3.36032e-06
8.33169e-06
-5.16268e-07
7.77067e-06
3.0626e-06
9.487e-06
6.04557e-06
1.42899e-05
7.59284e-06
1.40803e-05
8.12772e-06
1.21234e-05
6.74027e-06
9.73458e-06
5.20944e-06
7.83254e-06
4.0429e-06
6.46952e-06
2.85171e-06
5.51817e-06
1.74255e-06
4.869e-06
-5.23091e-08
4.71049e-06
-1.10371e-06
5.09104e-06
-9.40735e-07
5.87689e-06
-2.70316e-06
8.27188e-06
-5.86859e-06
1.05881e-05
-5.15392e-06
1.09568e-05
-2.64819e-06
1.02612e-05
4.10444e-07
8.72362e-06
4.17125e-06
8.0138e-06
5.62883e-06
9.35947e-06
7.71231e-06
1.11527e-05
7.08707e-06
1.04973e-05
6.22131e-06
8.85617e-06
5.26327e-06
7.21602e-06
4.1665e-06
5.95913e-06
3.11497e-06
5.00472e-06
2.33318e-06
4.33508e-06
1.84229e-06
3.85086e-06
1.45897e-06
3.42756e-06
1.05763e-06
3.18541e-06
7.56633e-07
3.12016e-06
4.93521e-07
3.19119e-06
-2.23949e-07
3.48868e-06
-1.45e-06
4.24997e-06
-3.33956e-06
5.74229e-06
-5.16975e-06
8.36264e-06
-7.15654e-06
1.09e-05
-6.68258e-06
1.21046e-05
-3.34539e-06
1.23104e-05
-7.53308e-07
1.19745e-05
1.15324e-06
1.14325e-05
2.21076e-06
1.14039e-05
3.63105e-06
1.03165e-05
-4.77318e-07
9.41877e-06
-3.60524e-07
8.9075e-06
-6.38634e-07
8.70941e-06
-7.23926e-07
8.6784e-06
-7.21616e-07
8.68318e-06
-7.60752e-07
8.67894e-06
-1.04536e-06
8.68493e-06
-1.30247e-06
8.76424e-06
-1.48549e-06
8.94699e-06
-1.89325e-06
9.28163e-06
-2.37599e-06
9.6538e-06
-1.73309e-06
9.87806e-06
-7.3246e-07
9.90767e-06
1.95859e-07
1.01256e-05
1.49443e-06
1.11104e-05
7.11459e-06
1.18315e-05
9.28666e-06
1.07352e-05
9.11178e-06
9.32686e-06
5.83158e-06
7.72386e-06
4.75234e-06
6.35645e-06
3.74348e-06
5.26871e-06
3.05488e-06
4.44576e-06
2.41158e-06
3.83498e-06
2.05446e-06
3.54503e-06
1.21812e-06
3.22198e-07
9.51502e-07
-2.39709e-07
9.09709e-07
-3.07964e-07
1.03526e-06
-3.2964e-07
1.25862e-06
-3.65522e-07
1.48506e-06
-5.80232e-07
1.67619e-06
-1.09613e-06
1.93738e-06