/*--------------------------------*- C++ -*----------------------------------*\
| =========                 |                                                 |
| \\      /  F ield         | OpenFOAM: The Open Source CFD Toolbox           |
|  \\    /   O peration     | Version:  2.3.0                                 |
|   \\  /    A nd           | Web:      www.OpenFOAM.org                      |
|    \\/     M anipulation  |                                                 |
\*---------------------------------------------------------------------------*/
FoamFile
{
    version     2.0;
    format      ascii;
    class       volScalarField;
    location    "0.03";
    object      rho;
}
// * * * * * * * * * * * * * * * * * * * * * * * * * * * * * * * * * * * * * //

dimensions      [1 -3 0 0 0 0 0];

internalField   nonuniform List<scalar> 
5000
(
1.04946
1.0531
1.05382
1.05331
1.05281
1.05244
1.05258
1.05262
1.05296
1.05288
1.05258
1.05211
1.05126
1.0504
1.05002
1.04856
1.04885
1.04903
1.04961
1.05025
1.05123
1.05188
1.05259
1.05311
1.05335
1.05342
1.05317
1.05215
1.05171
1.04751
1.04681
1.04616
1.04661
1.04851
1.04935
1.05098
1.0515
1.0518
1.05191
1.05203
1.05233
1.05268
1.05273
1.05244
1.05291
1.05294
1.05322
1.0539
1.05353
1.05316
1.0537
1.05379
1.05127
1.05119
1.05032
1.04939
1.04832
1.04671
1.04453
1.04157
1.03727
1.03151
1.02281
1.01218
0.997388
0.979245
0.966703
0.975006
0.990915
1.01001
1.02826
1.04003
1.04241
1.04462
1.03626
1.02383
1.00354
0.977078
0.960074
0.961009
0.967627
0.975454
0.984481
1.00279
1.02345
1.03437
1.03597
1.03597
1.03604
1.03616
1.03593
1.03453
1.03223
1.02818
1.02369
1.01588
1.00539
0.989428
0.972915
0.930227
1.04798
1.05312
1.05381
1.05332
1.0529
1.05245
1.05259
1.05266
1.05285
1.05291
1.05267
1.0523
1.05145
1.05068
1.05013
1.04884
1.049
1.04915
1.04971
1.05024
1.05133
1.05191
1.05261
1.0531
1.05334
1.05337
1.05308
1.05207
1.05144
1.04748
1.04677
1.04615
1.04659
1.04855
1.04934
1.051
1.05152
1.05182
1.05193
1.05204
1.0523
1.05257
1.05262
1.05233
1.05276
1.05272
1.05315
1.05378
1.05335
1.053
1.05326
1.05321
1.05005
1.04715
1.04036
1.03047
1.0178
1.00319
0.987655
0.970594
0.950055
0.922419
0.882126
0.824415
0.748342
0.640531
0.516194
0.482767
0.515999
0.620857
0.796775
0.982858
1.02591
1.02708
1.0101
0.985196
0.952428
0.914859
0.874286
0.847082
0.844841
0.850453
0.869975
0.909637
0.962329
0.998614
1.00636
1.00577
1.00571
1.00727
1.00994
1.00893
1.00304
0.990473
0.970409
0.943889
0.912004
0.877366
0.842294
0.781261
1.05356
1.05359
1.0535
1.05301
1.05258
1.05229
1.05241
1.05257
1.05288
1.0529
1.05262
1.05229
1.05145
1.05082
1.05029
1.04925
1.04919
1.04937
1.04989
1.05048
1.05139
1.05194
1.05264
1.05307
1.05325
1.05326
1.05294
1.05199
1.05114
1.04751
1.04683
1.04622
1.04667
1.04863
1.04934
1.051
1.05142
1.05147
1.05105
1.05024
1.04927
1.04855
1.0482
1.04718
1.04529
1.04354
1.04608
1.04963
1.05088
1.05153
1.05224
1.05197
1.04696
1.03777
1.01526
0.980319
0.932613
0.879268
0.829268
0.78764
0.750667
0.707453
0.647835
0.570884
0.487289
0.401882
0.325115
0.288493
0.289525
0.33151
0.484165
0.889356
1.00241
1.00898
0.99197
0.96221
0.924049
0.881568
0.834938
0.789652
0.768429
0.768862
0.777047
0.802536
0.854948
0.920452
0.952031
0.954776
0.955997
0.959946
0.961798
0.956768
0.939089
0.905139
0.85498
0.794077
0.73005
0.671079
0.626435
0.549387
1.05296
1.05365
1.05349
1.05307
1.0526
1.05238
1.05249
1.05252
1.05277
1.05292
1.05258
1.0526
1.05165
1.05115
1.05053
1.04994
1.04937
1.04977
1.05015
1.05073
1.05147
1.05203
1.05261
1.05301
1.05311
1.05304
1.05267
1.05175
1.05066
1.04765
1.04684
1.04624
1.04663
1.04863
1.04928
1.05078
1.05025
1.04766
1.04091
1.02718
1.00699
0.987931
0.979645
0.971315
0.936136
0.88229
0.898666
0.953824
0.996607
1.02428
1.03909
1.04507
1.03827
1.01323
0.955406
0.87609
0.786962
0.702372
0.631785
0.577143
0.535946
0.498334
0.454172
0.401796
0.348917
0.300442
0.259048
0.218272
0.212676
0.227321
0.311508
0.572937
0.927686
0.982886
0.97293
0.946848
0.905801
0.856921
0.802358
0.744979
0.706747
0.703064
0.707738
0.724982
0.766723
0.836528
0.892013
0.905458
0.909032
0.913883
0.914284
0.904758
0.873658
0.817987
0.746166
0.671972
0.603815
0.544395
0.500298
0.424939
1.0557
1.05411
1.05318
1.05267
1.05225
1.0523
1.05246
1.05234
1.05269
1.05286
1.05243
1.05288
1.0519
1.05149
1.05087
1.05079
1.04952
1.05014
1.05046
1.05112
1.05151
1.05212
1.05259
1.05289
1.0529
1.05256
1.05153
1.04947
1.04759
1.04649
1.04616
1.04604
1.04656
1.04864
1.04899
1.04995
1.04687
1.0364
1.00951
0.947919
0.842864
0.719777
0.650263
0.621876
0.549927
0.421612
0.386865
0.426673
0.51963
0.708111
0.884271
1.01496
1.01511
0.973074
0.882978
0.775376
0.67252
0.583488
0.511447
0.455099
0.412134
0.376673
0.340642
0.30396
0.273165
0.249277
0.210748
0.181202
0.177657
0.181985
0.215926
0.355232
0.697932
0.92428
0.937896
0.922883
0.882851
0.827457
0.763989
0.697009
0.641154
0.625824
0.629048
0.642643
0.678655
0.749464
0.825834
0.856874
0.86611
0.872364
0.872189
0.859302
0.820604
0.754536
0.67524
0.596582
0.527009
0.466624
0.419881
0.347366
1.0559
1.05465
1.05321
1.05257
1.05227
1.05225
1.05247
1.05225
1.05254
1.05264
1.05256
1.05295
1.05196
1.05135
1.05039
1.0507
1.04971
1.05051
1.05077
1.05147
1.05141
1.0522
1.05241
1.05234
1.05137
1.04801
1.03811
1.01595
0.99401
1.01456
1.03009
1.03878
1.0434
1.04743
1.04778
1.04714
1.0372
1.00593
0.934026
0.813557
0.66127
0.517264
0.421095
0.371499
0.325699
0.283345
0.229455
0.210411
0.229987
0.325575
0.60383
0.957193
0.980639
0.930111
0.821335
0.703289
0.599839
0.513758
0.443414
0.387474
0.34296
0.307038
0.275436
0.249292
0.232501
0.202481
0.176866
0.167722
0.167657
0.169211
0.176799
0.227467
0.386401
0.752856
0.882299
0.878314
0.84652
0.791441
0.725644
0.656531
0.590561
0.55024
0.546388
0.55154
0.572602
0.628913
0.720846
0.790793
0.820872
0.834014
0.833996
0.818794
0.772985
0.698707
0.614355
0.535009
0.467026
0.4089
0.363584
0.297567
1.0584
1.05479
1.05295
1.05234
1.05201
1.05216
1.05231
1.05221
1.05233
1.05239
1.05232
1.05182
1.04908
1.04147
1.03068
1.0359
1.04268
1.0473
1.04932
1.05086
1.05039
1.05073
1.04921
1.04561
1.03698
1.02012
0.977265
0.84731
0.618553
0.66035
0.796797
0.911828
0.97913
1.02421
1.04221
1.03935
1.01506
0.950446
0.840315
0.696554
0.54887
0.421623
0.33493
0.285021
0.252407
0.218003
0.183661
0.170093
0.172453
0.202423
0.365391
0.813088
0.930175
0.885006
0.770489
0.648582
0.545792
0.462195
0.394157
0.338924
0.295345
0.261441
0.236282
0.219116
0.193724
0.172224
0.164838
0.164922
0.166462
0.167631
0.169538
0.179272
0.252598
0.503653
0.790433
0.810961
0.790726
0.742287
0.680264
0.614114
0.548974
0.495598
0.468695
0.464128
0.467373
0.487673
0.547763
0.652171
0.747064
0.794816
0.798023
0.781853
0.731321
0.652564
0.566313
0.487746
0.42026
0.364429
0.318301
0.261056
1.05718
1.05479
1.05284
1.05227
1.05199
1.05188
1.05183
1.05218
1.05198
1.05167
1.05062
1.04592
1.02715
0.966351
0.819354
0.81805
0.913903
0.978479
1.0153
1.0324
1.03614
1.03211
1.02042
1.00084
0.973469
0.93027
0.836043
0.621107
0.378128
0.297733
0.328245
0.44903
0.696611
0.95062
1.02726
1.02304
0.98087
0.885916
0.75058
0.604879
0.470252
0.359702
0.285807
0.246587
0.220354
0.182384
0.167117
0.163454
0.16439
0.171869
0.250733
0.58806
0.862283
0.835849
0.728215
0.605097
0.503015
0.421111
0.355599
0.302104
0.260277
0.231457
0.213722
0.19184
0.1696
0.162295
0.163169
0.169212
0.18239
0.181939
0.179226
0.179966
0.195619
0.375335
0.698074
0.739209
0.72347
0.679576
0.620436
0.557654
0.496661
0.444146
0.408106
0.383848
0.374339
0.377508
0.395454
0.455593
0.592785
0.73678
0.762783
0.746831
0.693841
0.611683
0.524626
0.446741
0.381852
0.327856
0.281834
0.236294
1.0574
1.05233
1.04965
1.0455
1.03946
1.03521
1.03847
1.04508
1.0475
1.04639
1.04133
1.02589
0.960533
0.79541
0.52092
0.361937
0.418789
0.525442
0.729596
0.886954
0.963823
0.955788
0.913012
0.845514
0.78165
0.72006
0.614887
0.44809
0.308063
0.210344
0.195494
0.229365
0.383481
0.759497
0.989278
0.992572
0.935486
0.814608
0.668213
0.528097
0.406275
0.309017
0.250345
0.224009
0.184748
0.165511
0.162929
0.164249
0.16509
0.169063
0.195477
0.399966
0.776543
0.780182
0.688793
0.566071
0.46452
0.385463
0.32212
0.2713
0.233972
0.212681
0.194423
0.17093
0.160004
0.160096
0.16575
0.190839
0.226693
0.224291
0.212143
0.210246
0.226184
0.394616
0.645209
0.667311
0.64748
0.600379
0.543017
0.48559
0.430768
0.385587
0.352162
0.325961
0.308929
0.308174
0.312875
0.33533
0.419678
0.617941
0.722402
0.711564
0.65928
0.575189
0.487991
0.41114
0.348056
0.296877
0.252307
0.221308
0.984505
0.936768
0.927568
0.870161
0.768752
0.655886
0.627006
0.748565
0.877811
0.949622
0.979344
0.963746
0.864178
0.650887
0.399076
0.265806
0.217064
0.241623
0.344309
0.582828
0.81089
0.793971
0.701631
0.581384
0.504057
0.460365
0.406903
0.341976
0.238138
0.175862
0.16842
0.17436
0.227308
0.441361
0.893178
0.941139
0.876745
0.737052
0.588753
0.458368
0.349715
0.266973
0.227608
0.188022
0.16451
0.16224
0.166569
0.184807
0.185516
0.179867
0.185969
0.3054
0.691068
0.726431
0.648984
0.529316
0.428721
0.352515
0.292238
0.244808
0.215537
0.196834
0.174624
0.159636
0.156967
0.160333
0.177567
0.232504
0.277809
0.28469
0.283479
0.285858
0.304411
0.462906
0.597017
0.595292
0.561623
0.509984
0.45788
0.410236
0.367978
0.333388
0.308255
0.289396
0.27735
0.276038
0.277464
0.285325
0.326343
0.486548
0.669192
0.672382
0.626318
0.542219
0.45465
0.379832
0.318667
0.270752
0.230459
0.210705
0.167704
0.195857
0.211429
0.204594
0.188953
0.179074
0.177297
0.18832
0.257977
0.438217
0.790508
0.814658
0.714457
0.504677
0.327817
0.213005
0.178204
0.17955
0.202201
0.305277
0.551961
0.555435
0.470121
0.376454
0.336626
0.31801
0.28585
0.227042
0.172041
0.165333
0.16876
0.170534
0.181086
0.304564
0.75209
0.871336
0.805764
0.660326
0.515947
0.396455
0.300962
0.239284
0.191157
0.163877
0.159511
0.166118
0.19698
0.245157
0.240571
0.212674
0.201287
0.269876
0.61667
0.67751
0.606862
0.491663
0.394244
0.320944
0.264233
0.224352
0.201623
0.178972
0.161561
0.155042
0.155665
0.164074
0.19522
0.261664
0.344449
0.385027
0.399614
0.430878
0.48554
0.548968
0.552436
0.522042
0.469346
0.420551
0.381723
0.349649
0.323483
0.303137
0.287754
0.276626
0.269067
0.265969
0.266147
0.270233
0.289376
0.390648
0.599285
0.63192
0.593236
0.511424
0.423809
0.350944
0.292526
0.248658
0.215058
0.202778
0.15636
0.159648
0.160656
0.160833
0.160203
0.159507
0.158033
0.159213
0.178089
0.264512
0.510627
0.607554
0.528719
0.371685
0.246592
0.1767
0.176002
0.205825
0.241455
0.32082
0.437678
0.405325
0.328724
0.270595
0.234991
0.216332
0.191746
0.163843
0.158057
0.173811
0.215313
0.203251
0.193506
0.241539
0.604505
0.786321
0.725708
0.5849
0.449256
0.341714
0.262627
0.209846
0.166502
0.156561
0.160193
0.190461
0.273851
0.296533
0.283388
0.24317
0.221994
0.28366
0.583367
0.633062
0.563701
0.452666
0.360058
0.290669
0.239077
0.209512
0.185352
0.164586
0.155675
0.153322
0.155143
0.168804
0.203012
0.29408
0.428778
0.524384
0.563946
0.57184
0.567814
0.550928
0.497706
0.435071
0.38461
0.352152
0.331915
0.318
0.306333
0.295206
0.28421
0.274867
0.267993
0.263254
0.262761
0.265242
0.277082
0.337675
0.528366
0.591482
0.559789
0.481982
0.395837
0.324807
0.269593
0.231038
0.204341
0.196312
0.156835
0.156218
0.15575
0.155565
0.1554
0.155159
0.153637
0.158134
0.189725
0.2764
0.421623
0.435816
0.374756
0.277125
0.178655
0.164715
0.185613
0.288818
0.347425
0.380134
0.371845
0.316132
0.25252
0.200219
0.174143
0.16423
0.163323
0.155897
0.157201
0.213519
0.284926
0.262041
0.21622
0.242434
0.541337
0.707321
0.646786
0.512418
0.388176
0.293903
0.237726
0.180766
0.156863
0.155414
0.166059
0.247978
0.330004
0.344466
0.326255
0.272509
0.247489
0.315207
0.567805
0.592667
0.520163
0.413161
0.326142
0.261895
0.220212
0.194944
0.169837
0.158082
0.15314
0.152505
0.155428
0.171251
0.204125
0.310396
0.47665
0.566266
0.578674
0.571804
0.552703
0.498293
0.418408
0.360623
0.330072
0.321707
0.317857
0.313479
0.306996
0.297391
0.28402
0.273365
0.26778
0.263574
0.262291
0.263417
0.271557
0.310187
0.469413
0.551987
0.526891
0.453413
0.369541
0.301133
0.249536
0.217492
0.196916
0.189361
0.157129
0.157035
0.15688
0.156673
0.156428
0.15589
0.154595
0.157705
0.175179
0.255573
0.324251
0.328896
0.274169
0.189205
0.159579
0.159378
0.192086
0.276524
0.331105
0.336596
0.3063
0.248083
0.190708
0.163544
0.16466
0.165808
0.161309
0.154439
0.161905
0.270023
0.358693
0.319668
0.253695
0.272666
0.53308
0.64186
0.57102
0.441885
0.332293
0.257395
0.207735
0.162741
0.153508
0.155913
0.181502
0.292203
0.384058
0.385574
0.361526
0.301051
0.277954
0.354956
0.556507
0.555998
0.476463
0.374604
0.29367
0.236912
0.206104
0.178384
0.15983
0.155424
0.153372
0.152254
0.155804
0.171613
0.204679
0.308741
0.455721
0.525702
0.541524
0.535677
0.500123
0.42558
0.356684
0.327877
0.324341
0.323309
0.321584
0.316983
0.305868
0.287717
0.271121
0.268638
0.274522
0.278826
0.275611
0.269775
0.273692
0.29642
0.42165
0.51484
0.495031
0.426167
0.344894
0.279695
0.232501
0.206617
0.189869
0.182262
0.157084
0.157105
0.157101
0.157083
0.157034
0.156908
0.156199
0.155956
0.161302
0.185272
0.234348
0.223106
0.185161
0.16257
0.155094
0.157477
0.177103
0.24808
0.292359
0.284513
0.238814
0.187366
0.162613
0.16631
0.17323
0.173739
0.169555
0.158383
0.168234
0.305259
0.48861
0.42833
0.327138
0.350407
0.563607
0.587923
0.495887
0.374221
0.284193
0.234272
0.17964
0.158194
0.152636
0.156899
0.200924
0.33923
0.424092
0.416596
0.38367
0.319684
0.307838
0.398532
0.542662
0.520499
0.432677
0.336583
0.263323
0.218577
0.190012
0.164671
0.158627
0.156543
0.154988
0.152378
0.15562
0.168078
0.194434
0.259359
0.375621
0.456164
0.473315
0.466334
0.426731
0.363202
0.328942
0.326711
0.326739
0.324692
0.318765
0.306207
0.283331
0.265907
0.266693
0.278556
0.306665
0.31555
0.310688
0.294245
0.284549
0.298945
0.385428
0.479413
0.464176
0.40032
0.321803
0.26007
0.218842
0.198754
0.183068
0.174667
0.157088
0.157116
0.157159
0.157214
0.157305
0.157446
0.157498
0.156794
0.158467
0.163135
0.166399
0.163476
0.164067
0.159612
0.156758
0.156618
0.161441
0.188499
0.212791
0.205561
0.176779
0.162441
0.168528
0.182765
0.193074
0.193464
0.183437
0.16317
0.171443
0.325163
0.590083
0.58853
0.514275
0.531536
0.581378
0.530274
0.413718
0.311394
0.252834
0.197759
0.162059
0.156083
0.152682
0.158515
0.213109
0.383025
0.453105
0.436138
0.388452
0.330984
0.336293
0.447568
0.524319
0.483743
0.389376
0.300431
0.237825
0.204272
0.173321
0.159351
0.160171
0.159514
0.156459
0.152397
0.154652
0.163218
0.181542
0.226708
0.307415
0.378957
0.398331
0.392739
0.362103
0.330257
0.32667
0.326512
0.321352
0.311996
0.297035
0.270773
0.257425
0.260644
0.279665
0.316236
0.341832
0.343588
0.339412
0.323246
0.300562
0.306423
0.365222
0.447061
0.434766
0.375005
0.299857
0.241986
0.207349
0.191273
0.175801
0.167471
0.157119
0.157181
0.157299
0.157481
0.157779
0.158267
0.158859
0.15902
0.158854
0.159421
0.16256
0.163439
0.162042
0.162581
0.162307
0.159973
0.16023
0.161894
0.164335
0.162996
0.164463
0.170393
0.190063
0.212769
0.223831
0.222467
0.2027
0.170438
0.170432
0.324137
0.574054
0.631686
0.617546
0.592249
0.546488
0.442876
0.335553
0.267874
0.212849
0.167221
0.163332
0.158755
0.154405
0.159197
0.215173
0.401549
0.479675
0.452103
0.387264
0.346831
0.371361
0.4873
0.501048
0.442988
0.346592
0.266822
0.219608
0.18555
0.161268
0.163004
0.165483
0.163083
0.15703
0.152633
0.153674
0.158471
0.17109
0.20244
0.254077
0.307536
0.329963
0.330765
0.32324
0.319801
0.318293
0.312434
0.298745
0.27596
0.249931
0.242334
0.247746
0.277873
0.322613
0.347605
0.353984
0.353335
0.3501
0.339296
0.315379
0.315292
0.356612
0.420294
0.407905
0.349925
0.278621
0.22648
0.198946
0.184088
0.168549
0.160932
0.157226
0.157598
0.158151
0.15885
0.159744
0.160945
0.162115
0.162584
0.16292
0.162939
0.163836
0.166163
0.168269
0.170854
0.170941
0.168918
0.165576
0.165434
0.165547
0.167994
0.177261
0.195499
0.229181
0.257559
0.26868
0.263752
0.230317
0.183266
0.162446
0.289406
0.466119
0.581434
0.58166
0.545803
0.454099
0.350436
0.281111
0.222405
0.173741
0.167184
0.169107
0.164359
0.155958
0.158456
0.208997
0.397697
0.507355
0.47403
0.396746
0.37222
0.416392
0.497108
0.475445
0.398999
0.305489
0.239328
0.203096
0.168536
0.162411
0.171077
0.170762
0.16521
0.157352
0.153599
0.15312
0.155293
0.163456
0.18402
0.220544
0.256215
0.281162
0.294719
0.303428
0.303547
0.296643
0.278057
0.252555
0.23009
0.222097
0.228423
0.268119
0.322153
0.349755
0.356536
0.35682
0.356012
0.353451
0.345438
0.325146
0.32351
0.354886
0.399451
0.383425
0.325401
0.258096
0.212952
0.190843
0.176386
0.16179
0.156376
0.158311
0.160635
0.163515
0.166245
0.168504
0.170555
0.172275
0.172979
0.173938
0.174395
0.176163
0.180379
0.183034
0.185411
0.184797
0.182848
0.180112
0.178999
0.180667
0.188949
0.208944
0.23984
0.286065
0.32024
0.32918
0.318291
0.270123
0.209417
0.166856
0.227521
0.34779
0.459865
0.481373
0.435995
0.34987
0.290643
0.227954
0.175928
0.168313
0.181704
0.178632
0.168944
0.157733
0.157824
0.201978
0.382908
0.526254
0.508553
0.432619
0.415906
0.467052
0.48932
0.443913
0.350846
0.268174
0.220698
0.181329
0.161671
0.173006
0.178988
0.174791
0.165807
0.158912
0.156011
0.15411
0.153693
0.158142
0.172502
0.200044
0.227026
0.251929
0.273558
0.27895
0.274387
0.259024
0.237432
0.214016
0.204989
0.207661
0.245457
0.310483
0.347014
0.356148
0.356848
0.356412
0.355599
0.353331
0.345987
0.330213
0.330277
0.356655
0.382529
0.360546
0.301521
0.238513
0.202839
0.182955
0.168612
0.156885
0.154258
0.173811
0.193004
0.19994
0.200617
0.200297
0.200776
0.202018
0.202902
0.205378
0.206847
0.2093
0.213062
0.212863
0.212612
0.210095
0.208974
0.208505
0.210735
0.217247
0.234657
0.265925
0.304071
0.364144
0.401877
0.403664
0.383976
0.325008
0.254561
0.182874
0.174234
0.276512
0.34281
0.355074
0.328639
0.282172
0.223663
0.174079
0.172198
0.194973
0.195871
0.187076
0.174576
0.162403
0.15776
0.190939
0.346424
0.526694
0.537227
0.505973
0.485862
0.492384
0.469207
0.397385
0.304306
0.239857
0.198926
0.164078
0.171552
0.186697
0.184503
0.175689
0.167074
0.162734
0.160251
0.157185
0.153629
0.155152
0.164514
0.184076
0.212227
0.234207
0.248079
0.24961
0.242837
0.226024
0.204187
0.193898
0.193695
0.215025
0.281434
0.335554
0.352414
0.352185
0.351195
0.351548
0.351656
0.35002
0.343831
0.334076
0.336067
0.359541
0.36773
0.338899
0.277558
0.222273
0.193896
0.174667
0.161491
0.154685
0.154876
0.663552
0.475536
0.390465
0.343735
0.317018
0.302206
0.297672
0.297935
0.303265
0.298576
0.292526
0.285972
0.277262
0.272374
0.271916
0.275535
0.28106
0.289762
0.301337
0.325442
0.361745
0.405735
0.471942
0.491738
0.479915
0.450083
0.393465
0.323475
0.234773
0.171396
0.187779
0.255599
0.269083
0.247199
0.202831
0.166566
0.181983
0.215567
0.218577
0.209643
0.197852
0.186823
0.171677
0.159207
0.17798
0.304986
0.490089
0.533219
0.52675
0.508807
0.485953
0.429834
0.339349
0.262556
0.220401
0.175699
0.166906
0.190953
0.193769
0.186173
0.176132
0.171366
0.169828
0.167785
0.162497
0.155612
0.153642
0.15833
0.169935
0.189086
0.210579
0.223447
0.221969
0.209842
0.193285
0.185148
0.184201
0.192984
0.234548
0.304713
0.339995
0.340896
0.340258
0.341529
0.345637
0.348497
0.348141
0.34466
0.340241
0.343705
0.359946
0.353581
0.314892
0.253673
0.208353
0.184841
0.166448
0.156677
0.155512
0.159956
1.12196
0.988462
0.863707
0.76247
0.688674
0.644122
0.622214
0.601357
0.574949
0.535205
0.501389
0.473328
0.45723
0.452163
0.457191
0.465214
0.469286
0.470028
0.472898
0.492463
0.527849
0.560623
0.577764
0.562151
0.530401
0.499686
0.462198
0.41386
0.341515
0.239578
0.177876
0.169132
0.177002
0.16749
0.173756
0.213032
0.251454
0.253978
0.242142
0.231022
0.221684
0.209336
0.188331
0.164882
0.164419
0.26013
0.399482
0.489388
0.500055
0.484162
0.44235
0.362269
0.283431
0.23532
0.188817
0.163638
0.19024
0.202632
0.196027
0.185981
0.180629
0.180908
0.181263
0.178714
0.170133
0.159021
0.153836
0.155047
0.159741
0.167588
0.176478
0.182757
0.182164
0.178374
0.175025
0.175214
0.180892
0.198751
0.247724
0.303271
0.31784
0.320414
0.322111
0.328171
0.338422
0.345497
0.348014
0.348461
0.3488
0.352651
0.355479
0.336777
0.28759
0.230844
0.197054
0.174939
0.159198
0.155477
0.161743
0.171574
1.17845
1.1613
1.1366
1.10912
1.07891
1.04883
1.02127
0.991325
0.956073
0.91513
0.880458
0.853105
0.835216
0.822679
0.814598
0.800768
0.780175
0.755966
0.734563
0.717599
0.697505
0.670656
0.627669
0.580636
0.544686
0.524305
0.50486
0.47982
0.441991
0.37586
0.300346
0.242328
0.226614
0.246684
0.286574
0.307864
0.303845
0.290632
0.276299
0.270947
0.263797
0.24744
0.216865
0.181171
0.161338
0.205495
0.309364
0.391241
0.425465
0.413331
0.360447
0.292376
0.246819
0.198101
0.163051
0.187995
0.210421
0.205305
0.195563
0.191445
0.19314
0.19695
0.197623
0.192588
0.17887
0.164372
0.15703
0.154846
0.155665
0.157887
0.160346
0.162908
0.163717
0.16414
0.165668
0.170737
0.18136
0.201226
0.240714
0.273659
0.286139
0.290237
0.294822
0.307315
0.326409
0.34007
0.346037
0.349222
0.351288
0.351818
0.344432
0.313483
0.25738
0.211947
0.18517
0.16508
0.156404
0.160531
0.176063
0.190642
1.18212
1.18075
1.17825
1.17458
1.16962
1.16291
1.1556
1.14671
1.13551
1.12148
1.10711
1.0935
1.08095
1.06819
1.0534
1.02781
0.993022
0.959899
0.907899
0.83272
0.751655
0.67388
0.607186
0.564843
0.543922
0.532992
0.521989
0.507174
0.489423
0.467555
0.443891
0.416207
0.397314
0.383706
0.373575
0.363588
0.350592
0.338819
0.331773
0.332722
0.32448
0.300848
0.26121
0.214149
0.172313
0.166234
0.24254
0.296847
0.319613
0.313874
0.282423
0.244555
0.199099
0.1634
0.18861
0.217446
0.213942
0.205471
0.202148
0.20782
0.217321
0.221795
0.219796
0.207956
0.187895
0.171598
0.164344
0.160456
0.157644
0.156169
0.156029
0.15624
0.15633
0.15703
0.160366
0.168774
0.180845
0.197676
0.220876
0.239918
0.24843
0.252191
0.258405
0.276051
0.304185
0.327445
0.339114
0.344687
0.346497
0.344202
0.324592
0.280494
0.229113
0.197105
0.17244
0.158182
0.161281
0.177018
0.199619
0.217109
1.18225
1.18213
1.18187
1.18143
1.18077
1.17978
1.17848
1.17658
1.17395
1.17057
1.16661
1.162
1.15616
1.14709
1.13282
1.10488
1.04112
0.953913
0.855565
0.751632
0.657778
0.59255
0.558118
0.54842
0.542453
0.53534
0.524696
0.509716
0.491736
0.475249
0.458926
0.44246
0.426675
0.413037
0.402046
0.394711
0.38986
0.390859
0.395127
0.397264
0.386847
0.359696
0.315748
0.264741
0.208376
0.168714
0.172957
0.221756
0.245947
0.24295
0.219229
0.181937
0.164727
0.195194
0.224461
0.222264
0.216277
0.215244
0.226071
0.245988
0.25645
0.256015
0.246244
0.224099
0.197347
0.182524
0.178249
0.174931
0.169685
0.164337
0.160421
0.157146
0.155086
0.154173
0.156658
0.164855
0.17507
0.188862
0.204528
0.215713
0.220159
0.221692
0.225937
0.240137
0.268785
0.299899
0.318656
0.328192
0.329796
0.321283
0.289565
0.244093
0.208071
0.181261
0.160964
0.161073
0.182738
0.207128
0.232719
0.249956
1.18216
1.18214
1.18208
1.182
1.18189
1.18174
1.18153
1.18118
1.18066
1.17992
1.17887
1.17721
1.17436
1.16785
1.14665
1.09416
0.999019
0.868287
0.730616
0.616948
0.552064
0.538032
0.539978
0.54626
0.542731
0.53036
0.509646
0.487278
0.463983
0.448606
0.435541
0.424462
0.412354
0.402811
0.395477
0.395954
0.40481
0.418883
0.430235
0.431049
0.422332
0.399249
0.3606
0.318015
0.270577
0.214734
0.176422
0.163619
0.169635
0.168185
0.163684
0.17893
0.2131
0.232045
0.230899
0.22881
0.232476
0.25446
0.285381
0.306067
0.307169
0.296787
0.273169
0.240434
0.209248
0.200484
0.202721
0.202474
0.196754
0.188629
0.180433
0.170462
0.162535
0.155372
0.154464
0.15825
0.163731
0.174652
0.182058
0.182077
0.182514
0.186933
0.197224
0.213884
0.232376
0.258412
0.279856
0.291557
0.292205
0.279949
0.247282
0.21596
0.188427
0.165181
0.161081
0.186061
0.224739
0.24833
0.272253
0.285198
1.18205
1.18203
1.18201
1.18198
1.18194
1.18189
1.18184
1.18177
1.18165
1.18146
1.18111
1.18022
1.17714
1.16736
1.13803
1.0637
0.9341
0.772677
0.623468
0.532909
0.516161
0.531362
0.555675
0.553625
0.538257
0.511918
0.486677
0.462381
0.435986
0.413291
0.394716
0.382214
0.370955
0.366262
0.366892
0.372584
0.390895
0.420714
0.441349
0.442038
0.433502
0.406162
0.369817
0.336872
0.307675
0.278164
0.247498
0.220813
0.202738
0.202939
0.219507
0.236756
0.241494
0.240958
0.242524
0.258853
0.302046
0.349182
0.375013
0.378194
0.365474
0.338169
0.301514
0.260007
0.230252
0.23364
0.246986
0.253507
0.247912
0.236975
0.222953
0.201083
0.183108
0.164326
0.156855
0.157102
0.157678
0.160582
0.160822
0.160182
0.160116
0.161419
0.165954
0.177302
0.201436
0.22501
0.237616
0.245891
0.246235
0.236999
0.216804
0.192058
0.166857
0.16236
0.196727
0.244708
0.275312
0.293056
0.312876
0.318639
1.18197
1.18196
1.18195
1.18193
1.18192
1.1819
1.18189
1.18189
1.18188
1.18185
1.18165
1.18084
1.17797
1.16847
1.13941
1.05972
0.910473
0.723075
0.565281
0.511116
0.526391
0.572131
0.581529
0.557697
0.523191
0.49907
0.478042
0.455744
0.428367
0.396837
0.368889
0.348918
0.332659
0.325565
0.327678
0.338653
0.36886
0.41248
0.436762
0.435492
0.40297
0.352766
0.32049
0.304558
0.297478
0.2894
0.278886
0.269424
0.260213
0.254304
0.252132
0.25201
0.254441
0.261846
0.300399
0.385257
0.447786
0.469605
0.465435
0.444764
0.415672
0.380403
0.335649
0.288992
0.272685
0.289697
0.322772
0.339168
0.332778
0.317775
0.294026
0.253152
0.221668
0.188119
0.174644
0.173436
0.167766
0.161994
0.166305
0.172532
0.170946
0.16573
0.16255
0.160453
0.165415
0.184316
0.200716
0.21266
0.214031
0.20424
0.183253
0.164821
0.167901
0.217436
0.278949
0.305318
0.324035
0.337054
0.348602
0.345787
1.18193
1.18193
1.18193
1.18193
1.18193
1.18194
1.18195
1.18198
1.18201
1.18199
1.18178
1.18084
1.17745
1.16609
1.13101
1.03587
0.866309
0.668297
0.532265
0.520871
0.579667
0.630203
0.603326
0.547784
0.514789
0.504713
0.497032
0.475293
0.435202
0.389057
0.351751
0.326659
0.308101
0.300876
0.304098
0.32123
0.364171
0.413511
0.438077
0.430859
0.355754
0.30578
0.289077
0.284246
0.2806
0.277027
0.273652
0.269842
0.266578
0.264108
0.265172
0.273532
0.303841
0.373673
0.49545
0.572613
0.581524
0.559883
0.51668
0.480265
0.454456
0.42397
0.37961
0.340263
0.344853
0.381309
0.430168
0.451194
0.444993
0.427017
0.393237
0.332626
0.289698
0.237699
0.223084
0.225708
0.213997
0.198164
0.216067
0.231941
0.227561
0.21495
0.205475
0.191061
0.172021
0.163731
0.16246
0.167116
0.16802
0.164211
0.164526
0.185044
0.266989
0.324463
0.347603
0.359126
0.371343
0.37554
0.374567
0.358913
1.18198
1.18198
1.18199
1.18199
1.18201
1.18203
1.18207
1.18212
1.18217
1.18219
1.18206
1.18137
1.17874
1.16964
1.14037
1.05631
0.887084
0.675318
0.539783
0.548253
0.658267
0.67985
0.614775
0.545195
0.538835
0.54968
0.547511
0.511444
0.443594
0.378795
0.333164
0.306643
0.290306
0.287473
0.294979
0.325371
0.381911
0.443547
0.474485
0.420302
0.323041
0.289531
0.281689
0.282154
0.284638
0.28491
0.28373
0.282161
0.28168
0.287998
0.31344
0.377526
0.475896
0.571939
0.648229
0.66936
0.651527
0.594229
0.524352
0.490844
0.478873
0.462884
0.432238
0.422123
0.442167
0.486588
0.521627
0.532663
0.528068
0.515351
0.490101
0.435654
0.393698
0.328744
0.316733
0.322274
0.307163
0.290227
0.315653
0.335713
0.335807
0.325633
0.31826
0.302217
0.269592
0.239475
0.219032
0.201568
0.202294
0.220715
0.277954
0.340459
0.392101
0.403437
0.409275
0.411713
0.409723
0.400545
0.385524
0.356242
1.1821
1.18211
1.18212
1.18213
1.18215
1.18218
1.18222
1.18228
1.18234
1.18237
1.18229
1.18177
1.17967
1.17227
1.14801
1.07618
0.914018
0.693054
0.559826
0.590371
0.730163
0.729822
0.631725
0.565423
0.579118
0.605793
0.598657
0.542104
0.444774
0.360973
0.31205
0.28845
0.278925
0.281713
0.300429
0.351494
0.442372
0.539153
0.563512
0.406265
0.319713
0.300514
0.298369
0.313904
0.327211
0.331756
0.335259
0.340957
0.353361
0.385178
0.442712
0.500131
0.539334
0.590507
0.66365
0.70629
0.678854
0.601072
0.517311
0.491153
0.491692
0.49005
0.484709
0.49578
0.520683
0.544276
0.559088
0.563098
0.559066
0.550003
0.533808
0.508049
0.491115
0.455884
0.447592
0.44005
0.415152
0.402291
0.424483
0.454681
0.477657
0.486296
0.493971
0.492954
0.475082
0.455372
0.448799
0.437682
0.438926
0.450651
0.470377
0.480118
0.483695
0.475915
0.464265
0.444937
0.422201
0.398874
0.374433
0.335051
1.18231
1.18231
1.18232
1.18233
1.18235
1.18237
1.18241
1.18245
1.18251
1.18255
1.18253
1.18225
1.181
1.17638
1.16048
1.11051
0.977916
0.754585
0.605091
0.623345
0.753712
0.777781
0.677876
0.601313
0.615213
0.650488
0.643102
0.570545
0.439001
0.341003
0.294149
0.277056
0.274975
0.286846
0.329772
0.435041
0.609434
0.736867
0.736887
0.501694
0.384348
0.348175
0.343339
0.375479
0.407079
0.425797
0.437807
0.444753
0.447156
0.452412
0.462999
0.477031
0.484494
0.505769
0.587767
0.709302
0.694069
0.608702
0.51142
0.491497
0.497171
0.503639
0.509925
0.526894
0.551457
0.563036
0.568145
0.559015
0.545473
0.540893
0.53495
0.531534
0.533551
0.532866
0.526094
0.503848
0.472521
0.479919
0.526807
0.599707
0.660062
0.690681
0.710295
0.713952
0.700757
0.68197
0.663878
0.644971
0.625604
0.604839
0.581965
0.554024
0.525586
0.497238
0.468898
0.440752
0.408945
0.37671
0.34613
0.307846
1.18256
1.18256
1.18256
1.18256
1.18256
1.18257
1.18259
1.18261
1.18265
1.18268
1.18268
1.18255
1.18187
1.17923
1.16984
1.13868
1.04739
0.852366
0.679615
0.677211
0.781704
0.836479
0.754159
0.646355
0.643671
0.681769
0.684478
0.600124
0.432281
0.322598
0.282941
0.273356
0.280008
0.310986
0.415126
0.638196
0.847148
0.929736
0.914968
0.770705
0.621021
0.493984
0.426898
0.413416
0.439894
0.462407
0.47151
0.470713
0.457419
0.445925
0.436795
0.426834
0.427648
0.442355
0.508886
0.693264
0.723017
0.639811
0.517475
0.490892
0.498466
0.504962
0.510304
0.529704
0.556896
0.557091
0.538721
0.494664
0.446145
0.431564
0.435202
0.45765
0.493376
0.519249
0.503157
0.478018
0.485141
0.584245
0.724745
0.858856
0.923071
0.928452
0.914666
0.883599
0.844572
0.807237
0.761863
0.712451
0.668224
0.628023
0.589976
0.554372
0.519206
0.485298
0.450068
0.413941
0.377262
0.346473
0.321993
0.291451
1.18281
1.18281
1.1828
1.18278
1.18277
1.18276
1.18275
1.18275
1.18275
1.18277
1.18277
1.18273
1.18247
1.18137
1.1772
1.1625
1.11524
0.98717
0.813515
0.784643
0.854161
0.921799
0.868871
0.734379
0.686658
0.719506
0.737312
0.635274
0.428656
0.310574
0.278908
0.277033
0.297315
0.381781
0.596164
0.80857
0.887217
0.890794
0.87515
0.877017
0.894089
0.851929
0.69378