/*--------------------------------*- C++ -*----------------------------------*\
| =========                 |                                                 |
| \\      /  F ield         | OpenFOAM: The Open Source CFD Toolbox           |
|  \\    /   O peration     | Version:  2.3.0                                 |
|   \\  /    A nd           | Web:      www.OpenFOAM.org                      |
|    \\/     M anipulation  |                                                 |
\*---------------------------------------------------------------------------*/
FoamFile
{
    version     2.0;
    format      ascii;
    class       volScalarField;
    location    "0.03";
    object      T;
}
// * * * * * * * * * * * * * * * * * * * * * * * * * * * * * * * * * * * * * //

dimensions      [0 0 0 1 0 0 0];

internalField   nonuniform List<scalar> 
5000
(
294
294
294
294
294
294
294
294
294
294
294
294
294
294
294
294
294
294
294
294
294
294
294
294
294
294
294
294
294
294
294
294
294
294
294
294
294
294
294
294.001
294.001
294.001
294.001
294.001
294.001
294.001
294.001
294.001
294.001
294.002
294.007
294.025
294.082
294.219
294.443
294.676
294.99
295.429
296.016
296.811
297.915
299.527
301.768
304.884
309.056
314.627
318.44
315.863
310.607
305.182
300.352
297.263
296.021
296.409
297.9
301.377
307.032
315.026
320.431
320.105
317.946
315.416
312.553
307.031
301.197
298.131
297.651
297.592
297.601
297.669
297.836
298.184
298.772
299.649
301.009
303.071
306.075
310.244
315.807
329.686
294
294
294
294
294
294
294
294
294
294
294
294
294
294
294
294
294
294
294
294
294
294
294
294
294
294
294
294
294
294
294
294
294
294
294
294.001
294.002
294.004
294.01
294.02
294.033
294.041
294.043
294.049
294.068
294.075
294.052
294.03
294.018
294.02
294.046
294.13
294.395
295.285
297.064
299.709
303.207
307.321
311.963
317.263
323.942
333.434
348.425
372.405
409.627
477.634
591.016
632.613
591.114
492.053
384.938
313.508
300.421
301.142
305.032
312.483
322.906
335.862
351.159
362.219
363.118
360.701
352.666
337.484
319.361
308.017
305.765
305.88
305.912
305.572
304.939
305.201
306.829
310.502
316.668
325.324
336.402
349.425
363.701
391.506
294
294
294
294
294
294
294
294
294
294
294
294
294
294
294
294
294
294
294
294
294
294
294
294
294
294
294
294.001
294.001
294
294
294
294
294.001
294.004
294.014
294.041
294.106
294.247
294.503
294.836
295.104
295.198
295.397
296.024
296.508
295.869
295.061
294.569
294.312
294.254
294.464
295.17
297.785
303.887
314.163
329.802
349.413
370.119
389.366
408.205
432.864
472.2
534.946
625.682
757.637
938.008
1068.28
1064.44
927.29
630.268
345.532
306.922
306.198
310.217
319.705
332.592
348.305
367.421
388.103
398.598
398.307
394.1
381.695
358.574
333.379
322.511
321.546
321.176
319.999
319.554
321.167
327.058
338.975
358.503
385.48
418.732
454.991
486.954
553.896
294
294
294
294
294
294
294
294
294
294
294
294
294
294
294
294
294
294
294
294
294
294
294
294
294.001
294.003
294.011
294.025
294.027
294.013
294.006
294.003
294.003
294.008
294.027
294.1
294.357
295.116
296.938
300.688
306.371
312.074
314.643
317.18
328.927
348.605
342.343
323.054
309.379
301.553
297.661
296.31
297.425
304.5
322.093
350.609
389.65
435.866
483.915
529.008
569.197
611.717
670.567
757.429
872.159
1015.28
1186.89
1422.01
1460.96
1364.97
988.961
532.829
330.846
313.991
316.046
324.735
339.144
358.148
382.074
410.993
432.865
435.028
432.106
421.877
399.108
366.187
343.723
338.632
337.353
335.724
335.74
339.183
351.024
374.444
409.848
454.447
504.945
559.17
607.859
713.921
294
294
294
294
294
294
294
294
294
294
294
294
294.002
294.006
294.008
294.005
294.002
294.001
294
294
294
294
294.001
294.005
294.02
294.078
294.27
294.627
294.774
294.398
294.187
294.083
294.041
294.043
294.109
294.359
295.261
298.113
305.544
324.69
364.416
425.758
470.658
491.75
555.599
724.441
794.599
720.981
587.612
432.306
347.477
304.504
303.686
316.495
347.913
395.339
454.941
523.295
595.997
668.844
737.809
807.036
892.232
1001.24
1118.7
1237.2
1475.88
1729
1762.84
1719.03
1441.06
863.583
438.09
333.417
327.401
332.958
347.808
370.681
400.952
438.889
476.544
487.967
485.406
475.175
450.147
407.978
370.772
357.483
353.763
351.388
351.659
356.798
373.348
405.391
452.311
510.999
577.426
651.112
722.596
871.869
294
294
294
294
294
294
294
294
294
294
294.002
294.011
294.051
294.165
294.266
294.168
294.078
294.035
294.016
294.009
294.008
294.016
294.041
294.115
294.364
295.203
297.745
303.67
309.537
303.137
298.492
296.04
294.874
294.421
294.451
295.144
297.848
306.506
329.364
377.245
462.837
589.81
722.843
819.335
937.35
1088.47
1356.46
1491.5
1359.16
947.289
506.016
322.15
313.728
330.742
373.556
435.258
509.237
593.321
686.152
784.229
885.314
989.015
1104.18
1226.33
1329.97
1540.66
1777.51
1875.7
1872.73
1851.97
1768.53
1365.98
789.869
407.939
347.486
349.505
362.477
387.256
421.821
465.584
516.735
553.909
557.675
552.398
532.214
485.046
423.872
386.83
372.917
367.271
367.499
374.141
395.955
437.331
496.487
568.919
650.603
741.804
833.513
1017.01
294
294
294
294
294.001
294.001
294.001
294.001
294.001
294.006
294.038
294.208
294.893
296.879
299.619
298.2
296.063
294.985
294.464
294.257
294.254
294.426
294.858
295.832
298.118
302.651
315.181
362.336
493.273
461.881
382.941
335.577
313.097
300.678
295.942
297.246
303.901
323.75
365.401
439.649
556.165
721.753
907.217
1067.62
1215.68
1425.81
1706.22
1854.73
1827.28
1547.28
837.184
378.179
330.206
347.288
397.769
471.48
558.872
658.611
770.955
895.478
1027.43
1162.17
1291.94
1409.35
1613.57
1833.45
1914.43
1910.71
1889.25
1872.63
1845.66
1734.48
1221.7
606.429
387.141
377.974
387.608
412.479
449.577
497.263
555.27
614.213
648.9
655.077
650.435
623.436
555.687
467.797
409.108
385.055
383.796
391.513
418.173
467.835
537.897
623.337
721.937
831.515
951.146
1158.89
294.003
294.004
294.006
294.023
294.061
294.089
294.067
294.036
294.035
294.1
294.469
295.759
300.788
318.866
374.651
375.07
336.041
314.519
303.677
299.211
297.989
299.375
302.568
308.077
316.434
330.617
367.096
491.936
804.038
1033.78
935.78
679.794
437.421
322.915
299.999
301.682
313.96
346.85
408.37
505.354
647.96
845.083
1063.72
1239.89
1408.67
1721.03
1888.12
1931.66
1916.89
1821.72
1233.78
520.011
355.713
367.406
420.491
504.862
605.82
721.941
853.796
1004.11
1166.32
1316.81
1440.51
1628.28
1866.87
1953.23
1937.11
1861.59
1718.21
1720.94
1742.35
1722.04
1565.42
810.927
437.547
414.028
423.074
450.016
492.303
546.781
613.026
684.383
744.006
790.553
810.366
803.313
767.071
666.595
513.972
414.898
401.252
409.546
440.458
498.648
580.093
679.755
793.972
923.396
1073.82
1280.56
294.4
294.528
294.741
295.701
297.277
298.435
297.542
295.804
295.103
295.312
296.89
301.181
320.53
385.985
585.888
844.466
733.503
580.801
419.446
346.389
319.08
322.098
336.768
363.141
392.281
425.223
496.954
679.756
995.314
1478.08
1600.1
1356.11
797.724
402.547
310.964
310.334
328.756
376.709
458.072
577.799
748.816
983.592
1220.92
1384.44
1699.99
1909.38
1939.24
1920.18
1907.09
1852.63
1587.88
760.219
394.519
393.19
444.211
539.088
655.346
788.179
941.837
1118.2
1300.5
1443.57
1602.98
1851.14
1991.21
1983.44
1905.8
1637.43
1367.21
1381.97
1463.31
1475.5
1357.21
771.348
472.957
458.062
472.037
508.492
561.387
626.898
705.489
787.273
861.154
929.617
980.374
982.377
967.57
903.158
722.893
493.523
423.386
429.55
463.255
529.756
623.078
737.848
870.294
1019.29
1199.55
1368.06
314.174
328.663
331.642
353.072
398.848
466.571
487.403
409.114
349.534
323.628
314.56
319.582
355.467
470.468
763.872
1161.99
1437.87
1287.96
893.726
523.986
377.833
386.374
436.292
525.213
605.025
662.011
749.329
899.589
1307.77
1783.74
1854.33
1786.5
1363.79
687.325
343.854
326.666
350.34
415.739
519.003
664.574
869.159
1141.83
1361.89
1670.39
1930.31
1951.1
1895.28
1698.88
1690.45
1735.89
1658.49
995.582
443.045
421.711
471.099
576.05
709.285
861.18
1037.93
1240.86
1419.95
1577.42
1806.49
2004.83
2035.58
1981.11
1767.68
1330.34
1100.04
1075.61
1084.96
1077.6
1004.59
658.559
510.639
512.697
543.013
597.315
664.384
740.529
824.751
909.256
982.728
1046.09
1090.86
1095.62
1089.7
1059.73
927.579
624.752
456.659
454.211
487.289
561.51
668.142
798.176
949.949
1117.42
1314.21
1438.88
1927.59
1621.18
1493.97
1546.72
1683.72
1784.21
1801.11
1684.93
1207.14
695.943
388.01
376.685
428.743
604.967
937.034
1462.64
1741.99
1723.22
1528.92
997.317
552.203
549.491
648.036
810.384
911.382
968.408
1082.13
1379.21
1845.05
1900.77
1855.61
1827.69
1706.39
999.65
407.904
352.209
380.692
463.426
591.263
767.281
1010.36
1286.41
1641.39
1946.92
1992.88
1906.71
1591.45
1261.68
1286.02
1456.17
1527.15
1124.32
495.979
451.698
503.303
619.622
770.769
945.316
1148.43
1359.26
1532.91
1755.96
1982.15
2075.93
2058.21
1930.41
1590.21
1165.63
881.671
789.634
761.366
706.368
626.68
556.202
551.402
583.629
648.402
722.576
795.447
867.577
936.962
999.192
1052.09
1093.89
1124.12
1136.65
1135.57
1118.14
1044.64
776.069
509.186
482.855
514.047
594.898
716.037
863.214
1034.44
1216.86
1410.29
1498.9
2109.29
2062.06
2043.62
2039.2
2046.47
2054.2
2064.87
2021.67
1767.13
1164.34
597.33
502.635
577.059
823.112
1264.78
1782.58
1767.12
1511.5
1280.49
946.565
694.346
750.54
929.778
1142.48
1327.31
1449.28
1647.92
1963.39
2019.76
1811.41
1442.64
1527.19
1589.24
1256.91
506.242
389.59
422.046
522.306
677.886
889.436
1162.21
1484.5
1913.81
2043.99
1984.64
1648.98
1126.71
1025.71
1073.73
1255.32
1374.66
1068.84
523.822
482.977
541.192
672.271
843.334
1043.68
1271.94
1466.78
1687.47
1937.95
2080.02
2109.58
2069.41
1865.73
1512.94
1032.04
708.743
580.652
540.409
533.207
536.779
554.077
611.474
698.731
789.605
861.541
913.39
952.959
988.888
1025.78
1065.09
1100.83
1128.58
1148.26
1150.14
1138.99
1090.51
896.332
576.522
515.31
544.249
630.774
766.209
932.078
1122.25
1310.59
1488.05
1554.74
2105.97
2112.7
2117.45
2118.77
2119.85
2121.46
2133.23
2044.83
1648.85
1103.99
721.286
698.419
814.871
1120.46
1777.63
1926.77
1682.21
1062.43
872.801
798.023
816.729
966.697
1227.38
1570.68
1826.72
1959.94
1999.54
2091.53
2043.22
1460.61
1074.99
1170.87
1412.31
1249.1
564.297
432.48
472.848
595.201
783.572
1035.02
1297.38
1745.89
2054.37
2063.06
1913.57
1249.26
920.274
879.408
928.405
1111.69
1226.24
961.82
537.787
515.384
585.932
735.74
930.372
1159.15
1388.05
1593.8
1865.75
2051.87
2128.07
2130.02
2066.05
1832.08
1498.85
977.15
638.324
538.16
526.928
533.265
551.325
611.716
725.918
841.528
918.429
942.065
953.372
966.542
986.747
1018.29
1065.84
1106.87
1129.49
1146.86
1152.21
1146.77
1112.49
974.892
647.909
551.57
577.826
669.948
820.245
1004.96
1212.59
1394.1
1550.27
1621.54
2102.76
2103.67
2105.28
2107.53
2110.12
2115.94
2127.48
2069.21
1809.84
1211.37
944.772
935.399
1131.98
1673.6
2031.06
2016.49
1626.5
1099.21
914.915
901.833
998.488
1250.51
1654.11
1968.22
1993.02
1994.15
2047.93
2122.5
1979.91
1143.59
845.791
948.873
1197.24
1109.76
572.574
476.036
534.593
688.936
914.773
1187.97
1501.52
1971.93
2109.65
2059.29
1732.3
1044.52
789.759
785.865
837.724
1004.8
1089.6
854.695
548.326
548.848
638.983
810.882
1033.16
1284.91
1496.71
1762.53
2016.6
2107.34
2135.63
2140.78
2059.74
1826.96
1498.21
983.224
667.298
579.261
562.601
568.742
608.642
714.607
850.456
924.478
934.496
937.412
942.381
955.925
990.437
1052.54
1116.37
1126.27
1101.98
1084.76
1097.11
1119.95
1103.79
1019.61
720.121
590.853
614.545
712.149
878.262
1081.75
1302.38
1471.2
1616.95
1696.86
2102.6
2102.58
2102.66
2102.82
2103.26
2104.48
2111.82
2107.89
2015.38
1707.14
1332.01
1404.27
1712.37
2007.34
2111.74
2064.2
1785.03
1248.97
1052.23
1083.25
1302.86
1685.81
1989.64
1986.43
1921.12
1915.76
1959.54
2079.24
1890.38
1000.49
621.757
707.064
926.465
864.124
541.559
519.135
614.539
812.599
1072.24
1322.64
1762.56
2063.33
2131.88
2048.7
1551.17
894.809
715.404
727.61
789.505
946.179
983.49
762.089
561.943
585.798
702.746
901.669
1153.18
1401.55
1642.8
1938.52
2065.65
2103.52
2121.16
2141.96
2062.61
1874.73
1592.09
1175.67
808.414
666.464
642.659
652.251
711.929
836.04
921.324
927.752
927.683
933.449
950.696
989.595
1069.19
1138.44
1134.78
1086.69
987.31
959.1
973.774
1027.46
1061.88
1010.93
787.036
633.961
654.83
757.703
940.772
1163.36
1385.7
1535.48
1688.55
1785
2102.6
2102.41
2102.02
2101.32
2100.17
2098.35
2097.36
2104.34
2078.53
2002.45
1925.48
1973.58
1998.28
2068.98
2103.66
2094.79
1994.47
1673.95
1472.67
1527.49
1795.8
1998.89
1965.5
1827.03
1733.2
1729.68
1819.58
2026.4
1849.54
935.575
516.019
516.623
590.289
571.587
524.9
574.845
735.181
977.395
1218.76
1587.96
1997.09
2106.84
2141.36
2029.71
1455.18
793.428
669.991
695.257
779.669
913.995
900.389
679.624
581.179
629.717
780.221
1010.07
1281.08
1515.84
1824.17
2042.82
2062.31
2071.78
2105.94
2142.68
2081.81
1943.56
1718.68
1353.27
988.061
801.118
762.257
773.095
837.881
918.313
927.771
928.318
943.177
971.416
1020.8
1119.31
1176.3
1161.27
1082.86
957.932
886.127
881.158
891.593
935.647
1005.54
986.388
829.962
679.221
698.455
808.417
1009.3
1250.92
1466.62
1604.72
1772.19
1877.93
2102.41
2101.59
2100.28
2098.08
2094.46
2088.54
2081.4
2079.15
2080.42
2071.06
2028.25
2022.84
2043.44
2039.16
2042.12
2066.64
2050.1
2001.94
1954.44
1978.63
1992.55
1947.4
1760.23
1578.65
1503.01
1511.89
1653.79
1948.85
1865.67
939.331
530.112
482.085
492.91
513.97
557.684
686.943
906.547
1147.04
1468.15
1914.96
2022.24
2081.42
2126.56
2020.42
1439.34
757.384
633.236
671.099
781.904
872.727
816.041
624.904
607.773
686.775
875.795
1138.5
1398.3
1688.71
1997.51
2027.39
2004.69
2031.59
2099.88
2141.78
2105.57
2017.53
1839.71
1527.94
1199.67
986.708
919.013
916.585
937.613
948.013
952.154
970.16
1015.37
1100.3
1214.52
1250.34
1221.89
1090.17
939.382
871.832
855.924
857.054
864.553
891.636
958.488
958.862
849.636
721.835
743.905
865.782
1086.03
1338.17
1535.37
1679.11
1864.51
1972.1
2101.18
2096.66
2090.08
2081.73
2071.14
2057.02
2043.34
2037.78
2033.77
2033.27
2022.94
1997.66
1974.59
1946.67
1945.78
1967.47
2003.3
2000.48
1994.75
1970.84
1880.02
1713.16
1469.15
1311.75
1258.93
1281.79
1461.85
1821.7
1990.14
1064.6
651.465
523.381
523.135
557.398
669.711
867.961
1092.18
1402.6
1833.44
1973.46
1966.32
2018.56
2110.12
2035.22
1487.08
764.77
599.123
640.604
763.342
813.858
728.429
612.655
640.069
761.679
993.474
1274.66
1531.11
1889.04
2025.8
1943.74
1946.97
2007.96
2096.43
2134.4
2126.63
2076.07
1942.22
1693.72
1390.1
1185.87
1078
1027.95
998.551
998.674
1022.17
1092.42
1206.35
1323.64
1366.71
1326.03
1130.2
940.883
866.757
850.168
849.176
850.672
856.419
875.945
929.79
934.623
853.615
759.188
790.967
930.479
1172.56
1426.79
1610.67
1766.71
1960.83
2049.74
2088.36
2060.86
2027.51
1996.51
1971.28
1948.85
1930.43
1922.9
1912.83
1908.1
1890.29
1848.81
1823.57
1801.33
1807.14
1825.49
1851.87
1862.88
1846.81
1769.87
1606.68
1405.75
1184.45
1061.16
1033.07
1067.5
1252.26
1603.13
1971.53
1372.53
874.755
660.384
631.032
696.488
869.412
1058.26
1369.12
1809.22
1958.57
1838.23
1867.62
1967.76
2091.13
2053.11
1542.22
794.073
578.059
597.727
700.652
729.181
650.455
622.192
684.944
865.464
1133.45
1395.77
1736.18
2015.88
1923.58
1862.78
1904.89
2001.24
2078.73
2109.61
2126.58
2113.73
2023.49
1821.7
1544.54
1343.41
1204.2
1107.97
1086.98
1106.45
1175.46
1288.46
1430.38
1487.41
1461.87
1235.25
976.306
873.653
851.323
849.426
850.126
851.651
856.697
874.588
915.567
915.543
849.331
792.456
840.631
1003.84
1269.91
1504.38
1692.73
1865.14
2042.99
2099.01
1915.71
1734.9
1677.53
1671.54
1673.6
1669.37
1659.27
1652.17
1632.91
1621.62
1603.29
1575.96
1577.5
1579.33
1597.76
1606.11
1609.69
1593.33
1547.21
1435.91
1271.53
1116.04
936.12
850.175
846.497
888.877
1045.84
1326.63
1823.26
1827.1
1118.11
889.125
856.407
928.859
1093.05
1399.21
1832.97
1920.47
1719.3
1710.24
1787.23
1908.25
2039.46
2068.03
1639.54
877.754
577.854
566.398
600.432
625.509
617.481
648.437
764.449
997.912
1274.79
1567.84
1957.12
1936.87
1789.64
1809.8
1895.74
1987.08
2035.44
2063.08
2096.35
2128.47
2078.44
1927.51
1695.21
1451.51
1304.38
1228.41
1221.83
1260.4
1361.1
1508.7
1583.45
1576.42
1412.55
1077.11
903.301
860.375
860.796
862.944
861.76
861.103
864.73
880
905.098
899.88
842.533
824.023
893.744
1090.43
1365.52
1583.69
1788.44
1967.33
2094.07
2110.32
519.553
720.687
874.204
990.143
1071.46
1122.57
1139.15
1138.06
1118.46
1135.5
1158.39
1184.3
1220.64
1242.04
1244.23
1228.38
1204.9
1169.64
1125.83
1044.46
942.091
842.192
726.371
697.731
714.568
760.901
867.798
1050.52
1435.41
1923.84
1685.8
1216.39
1150.31
1259.61
1552.4
1934.19
1829.15
1560.48
1538.67
1601.97
1693.98
1789.58
1938.4
2064.93
1774.09
1002.31
620.684
570.711
577.222
597.662
625.707
706.964
894.508
1160.47
1406.62
1805.27
1976.44
1751.66
1727.05
1794.3
1891.26
1940.54
1957.05
1979.18
2037.65
2112.63
2114.36
2022.82
1859.28
1651.94
1474.49
1385.78
1395.56
1479.21
1606.65
1672.77
1673.04
1583.39
1293.59
994.299
891.572
889.15
890.648
887.105
876.34
868.829
869.379
877.867
888.97
880.059
841.529
856.64
961.453
1193.66
1462.95
1674.6
1896.12
2052.06
2103.77
2059.67
309.676
350.884
400.761
453.109
500.834
534.87
553.349
572.166
597.961
641.506
683.958
723.73
748.783
757.068
748.981
736.345
730.12
729.014
724.72
696.554
650.773
613.471
595.631
611.897
647.807
686.801
741.239
825.793
996.072
1408.06
1861.11
1896.5
1800.02
1920.03
1897.4
1578.23
1343.28
1330.13
1393.37
1458.46
1518.12
1604.55
1776
2009.64
1948.5
1188.58
760.085
621.387
607.951
627.855
686.747
838.095
1073.45
1311.23
1667.03
1995.2
1758.07
1654.48
1707.97
1796.04
1846.72
1844.06
1840.74
1865.58
1953.61
2076.4
2126.85
2088.82
2006.37
1893.06
1785
1716.64
1721.52
1758.99
1788.02
1778.48
1707.43
1534.95
1222.84
998.862
953.424
945.628
940.48
922.895
894.824
876.318
869.727
868.341
867.474
857.967
851.965
898.916
1052.52
1314.39
1557.91
1787.06
2007.92
2094.72
2040.15
1933.32
294.986
299.277
305.685
313.149
321.789
330.875
339.663
349.758
362.45
378.406
393.093
405.538
414.139
420.388
424.539
431.792
443.049
457.048
470.191
481.179
494.879
514.421
549.076
592.767
631.142
655.145
679.812
714.442
774.101
906.86
1128.82
1392.16
1485.23
1368.54
1182.01
1102.49
1116.98
1166.67
1225.73
1249.4
1282.45
1364.74
1550.74
1842.89
2025.83
1525.38
986.451
776.047
713.465
734.372
842.123
1041.02
1249.34
1584.12
1984.44
1778.97
1595.21
1633.69
1711.83
1747.1
1732.6
1700.53
1695.03
1737.37
1863.85
2016.54
2097.24
2114.13
2088.29
2044.44
2000.25
1958.52
1944.26
1932.41
1904.86
1832.19
1703.02
1513.32
1259.22
1107.57
1059.14
1043.94
1027.39
985.294
927.527
890.176
874.686
866.529
861.435
860.091
878.98
965.38
1176.76
1438.84
1674.37
1918.38
2075.79
2052.29
1887.59
1749.96
294.062
294.389
294.993
295.888
297.113
298.788
300.638
302.922
305.86
309.629
313.601
317.464
321.125
324.933
329.467
337.592
349.291
361.211
381.633
415.633
459.792
512.019
567.285
609.056
632.021
644.674
657.916
676.655
700.566
732.469
770.516
820.555
858.632
888.588
912.418
937.275
971.436
1004.61
1025.6
1022.84
1048.25
1128.41
1294.7
1569.72
1929.32
1927.17
1279.26
1029.27
951.348
969.008
1082.22
1265.06
1579.29
1978.22
1773.34
1545.35
1569.88
1632.37
1658.32
1614.86
1546.81
1516.65
1529.95
1613.88
1778.6
1937.74
2016.43
2058.75
2086.86
2096.14
2087.56
2073.53
2063.15
2041.24
1980.97
1859.13
1710.85
1547.26
1378.09
1267.46
1223.58
1204.31
1173.76
1097.2
995.125
924.274
892.435
877.941
873.283
879.055
932.33
1078.96
1326.11
1561.76
1821.65
2037.51
2042.73
1878.25
1674.95
1544.34
294.004
294.026
294.078
294.175
294.322
294.552
294.855
295.31
295.952
296.789
297.789
298.963
300.477
302.843
306.643
314.337
333.372
363.456
404.654
459.772
524.317
581.041
616.266
626.963
633.704
641.906
654.594
673.362
697.372
720.915
745.891
772.998
800.953
826.984
849.28
864.969
875.709
873.705
864.618
860.135
882.829
947.867
1076.37
1277.67
1611.65
1959.78
1840.18
1408.85
1259.27
1275.69
1425.43
1740.66
1982.44
1716.37
1498.56
1512.97
1553.49
1560.88
1488.79
1371.97
1317.6
1319.8
1370.57
1501.48
1697.02
1828.26
1869.72
1902.78
1957.33
2014.76
2056.65
2089.93
2107.55
2102.58
2043.61
1915.86
1785.24
1636.63
1504.24
1427.71
1399.03
1385.53
1353.05
1266.1
1127.13
1009.1
949.492
921.798
917.248
941.488
1045.12
1242.44
1472.87
1721.19
1987.42
2040.58
1823.2
1616.68
1444.43
1347.4
294
294.002
294.006
294.014
294.028
294.053
294.093
294.166
294.289
294.469
294.733
295.155
295.884
297.535
303.004
317.394
347.249
398.776
472.743
558.371
622.841
638.819
636.583
629.396
633.385
647.82
673.567
703.771
738.248
762.913
785.22
805.199
828.301
847.598
863.117
862.299
844.022
816.407
795.43
794.007
810.087
855.882
945.424
1068.65
1250.54
1565.34
1882.54
1983.41
1882.1
1901.14
1985.39
1858.44
1576.08
1450.99
1458.1
1471.05
1448.79
1327.48
1187.55
1109.35
1105.5
1143.17
1239.18
1402.63
1604.12
1671.52
1653.76
1655.58
1701.58
1771.43
1847.69
1948.48
2034.37
2109.85
2095.58
2024.77
1942.01
1796.83
1720.85
1724.23
1719.96
1673.48
1578.03
1442.57
1312.66
1173.27
1081.68
1037.78
1035.36
1080.98
1226.96
1416.21
1651.41
1924.9
2035.54
1792.79
1494.5
1356.41
1240.42
1185.32
294
294
294
294.001
294.002
294.005
294.01
294.022
294.049
294.101
294.198
294.433
295.218
297.688
305.3
326.397
371.057
447.388
552.603
644.765
665.333
646.687
618.929
621.172
638.545
670.709
704.727
740.885
784.707
826.74
864.694
892.254
918.698
930.265
928.818
915.105
873.344
812.86
775.724
774.582
789.546
841.519
922.267
1010.14
1103.34
1216.91
1362.81
1522.19
1653.82
1651.87
1530.81
1422.74
1395.87
1398.96
1390.34
1305.34
1123.55
975.477
909.854
902.416
933.125
1006.62
1125.71
1300.06
1462.57
1442.05
1366.42
1332.16
1361.19
1421.92
1508.31
1666.04
1821.88
2014.85
2093.31
2081.75
2062.69
1996.96
1998.55
2017.46
2017.2
1988.48
1918.58
1776.03
1543.28
1364.1
1282.5
1235.59
1233.43
1284.15
1416.61
1620.87
1905.08
2018.61
1700.37
1376.35
1227.27
1154.74
1083.39
1064.02
294
294
294
294
294
294
294.001
294.004
294.011
294.029
294.094
294.314
295.05
297.447
304.975
327.645
380.578
477.603
608.484
671.751
652.653
601.43
591.888
616.711
656.566
687.633
717.195
751.472
798.397
860.311
923.875
975.395
1021.87
1043.62
1037.16
1004.49
924.247
828.683
783.636
785.911
847.952
965.651
1060.36
1114.31
1140.04
1170.8
1213.44
1254.55
1297.55
1326.79
1338.21
1339.09
1326.89
1290.53
1129.32
886.028
764.805
730.013
736.468
770.042
822.8
897.358
1013.99
1173.16
1241.29
1170.33
1053.25
1003.48
1022.15
1069.05
1153.02
1333.51
1516.62
1775.7
1905.02
1917.37
1976.33
2033.06
1989.11
1925.61
1941.56
1994.03
2022.78
2028.31
1929.51
1703.39
1550.69
1457.01
1446.82
1520.38
1712.75
1938.87
1965.04
1544.55
1211.95
1109.8
1047.2
1007.61
974.976
982.502
294
294
294
294
294
294
294
294.002
294.007
294.028
294.101
294.356
295.222
298.091
307.256
335.129
399.737
516.159
645.539
659.423
593.731
546.924
570.854
627.653
667.067
680.083
690.328
721.19
786.145
877.175
967.858
1040.25
1101.27
1127.04
1115.49
1057.57
935.845
826.625
781.286
794.132
957.663
1109.95
1172.31
1191.62
1206.58
1221.54
1235.99
1252.73
1267.53
1279.07
1274.29
1236.6
1116.61
912.668
692.515
600.847
591.843
614.358
664.775
714.214
753.972
807.072
899.196
1000.59
987.56
895.221
795.576
759.169
769.453
801.077
868.281
1022.38
1169.72
1417.53
1507.44
1490.51
1569.33
1690.05
1554.87
1451.52
1478.45
1562.19
1631.58
1749.5
1926.96
1997.45
1983.8
1909.24
1896.67
1952.02
1988.51
1801.15
1265.24
1045.99
978.013
947.325
916.818
906.684
908.948
947.413
294
294
294
294
294
294
294
294.001
294.005
294.02
294.075
294.271
294.947
297.242
304.804
328.767
390.537
510.912
636.746
627.111
523.981
507.617
560.399
630.565
637.836
625.445
627.83
671.189
771.602
900.424
1020.56
1106.45
1167.01
1178.22
1149.09
1044.47
893.352
771.778
722.48
813.608
1052.06
1170.46
1202.11
1200.12
1189.86
1188.63
1193.29
1199.61
1201.54
1175.91
1082.99
903.339
720.248
601.433
531.821
515.353
529.268
579.438
655.215
699.114
716.277
740.538
791.966
810.544
774.523
705.142
658.596
645.148
650.591
666.284
699.895
785.447
867.24
1034.14
1072.35
1054.33
1104.83
1167.52
1075.73
1012.91
1012.54
1043.23
1066.66
1121.63
1253.56
1406.87
1534.27
1661.3
1655.44
1522.6
1216.61
998.029
869.455
845.546
833.758
828.872
832.776
851.333
883.702
954.354
294
294
294
294
294
294
294
294.001
294.004
294.015
294.058
294.212
294.754
296.617
302.83
322.801
379.22
498.063
614.38
583.147
473.158
473.376
545.612
608.398
594.234
568.472
575.095
633.931
769.616
943.867
1087.86
1174.39
1213.35
1201.69
1128.83
968.721
773.737
637.355
610.327
841.078
1062.7
1128.77
1136.64
1081.76
1038.8
1024.83
1014.29
997.671
963.456
885.66
772.959
685.939
637.038
582.83
519.666
488.811
508.299
572.95
663.961
698.677
697.963
700.288
707.867
692.366
659.839
631.736
615.259
610.903
615.178
625.08
643.645
675.611
698.432
751.254
764.88
777.688
823.272
848.967
805.467
752.967
717.392
704.803
693.969
695.243
720.751
751.159
761.845
780.699
778.468
758.566
727.414
713.011
707.919
719.247
736.936
768.244
808.687
854.807
909.269
1013.17
294
294
294
294
294
294
294
294
294.002
294.008
294.033
294.124
294.452
295.616
299.633
312.962
354.805
458.074
569.193
552.816
458.604
444.63
509.048
572.684
559.943
530.059
536.013
602.899
779.548
997.801
1152.33
1221.37
1230.35
1180.84
1030.91
786.482
565.056
468.809
468.811
684.048
887.933
977.875
991.275
908.312
839.284
803.106
781.476
769.474
765.398
756.694
739.763
718.501
707.709
678.558
585.545
486.767
497.328
565.887
671.462
698.191
690.41
681.742
673.506
652.211
623.679
611.057
605.618
615.284
630.228
635.42
642.309
646.323
643.907
644.695
652.814
681.059
725.256
714.259
651.812
573.86
522.187
499.33
485.685
483.149
492.028
505.285
518.765
533.657
549.843
568.357
590.375
619.612
652.528
689
729.783
775.368
834.323
903.927
981.774
1100.32
294
294
294
294
294
294
294
294
294.001
294.004
294.017
294.066
294.249
294.913
297.265
305.312
331.578
406.261
507.763
509.537
442.423
413.866
458.316
533.431
535.598
506.12
504.124
573.689
791.432
1053.29
1196.74
1237.49
1208.9
1091.57
823.386
540.014
408.634
372.842
378.778
448.563
554.741
694.494
801.221
826.732
777.952
740.768
726.72
727.895
748.604
767.521
783.267
801.196
799.756
773.771
674.54
497.862
477.719
538.843
663.751
699.028
688.641
679.973
672.994
648.798
617.685
617.447
638.066
693.728
767.526
792.864
786.333
748.487
695.314
661.283
682.007
717.118
706.768
588.879
476.368
402.98
375.29
373.1
378.593
391.647
409.432
428.022
453.061
483.909
515.385
547.772
582.495
619.246
660.395
705.616
759.693
824.492
902.752
980.834
1053.45
1160.49
294
294
294
294
294
294
294
294
294
294.001
294.006
294.024
294.098
294.378
295.416
299.116
311.639
351.511
425.363
440.776
405.406
376.067
398.632
470.437
502.591
479.972
468.549
542.49
798.005
1093.05
1213.6
1221.57
1140.46
893.656
577.41
427.836
390.432
388.895
395.757
394.926
387.481
406.379
497.435
617.758
698.197
716.318
718.529
719.548
727.389
740.613
756.145
770.001
777.19
759.464
692.622
510.537
450.292
496.592
633.961
708.122
708.784
712.086
699.225
650.807
611.772
623.905
679.161
792.269
933.384
989.443
962.192
877.757
764.393
728.919
750.446
722.71
539.954
404.938
350.476
329.253
325.704
331.412
344.265
364.609
391.428
421.763
454.012
487.032
520.999
556.919
595.762
639.522
691.961
746.607
807.723
874.832
948.518
1020.81
1084.09
1184.91
294
294
294
294
294
294
294
294
294
294
294.001
294.006
294.027
294.113
294.449
295.713
300.274
316.026
350.514
359.06
345.276
333.02
345.258
396.858
442.474
429.791
422.891
509.61
812.859
1117.98
1197.68
1160.39
970.411
664.849
477.893
428.419
425.017
475.159
496.611
475.553
419.273
375.71
357.145
359.294
416.634
495.856
550.074
583.112
587.885
588.147
590.878
598.397
623.644
641.037
613.658
495.062
420.44
450.653
578.482
706.998
750.945
749.661
713.254
618.235
596.275
632.594
742.785
917.117
1109.27
1170.09
1106.95
968.815
851.354
794.803
733.654
574.021
387.049
333.312
313.659
308.926
309.977
318.041
334.813
359.862
390.177
420.875
451.035
483.534
518.353
558.161
606.984
663.141
721.312
777.794
837.094
910.003
972.976
1034.34
1058.17
1103.69
294
294
294
294
294
294
294
294
294
294
294
294.001
294.005
294.026
294.108
294.43
295.604
299.302
305.968
307.451
305.455
304.988
309.828
330.826
361.729
362.469
370.473
464.818
788.533
1096.51
1153.73
1046.87
787.675
546.818
468.136
457.726
514.4
544.924
553.392
538.48
508.829
459.891
398.297
343.151
316.251
324.17
343.744
364.758
374.48
380.557
391.829
411.576
444.172
482.531
478.058
427.873
388.143
408.702
511.975
676.579
771.049
761.293
680.343
575.1
586.221
657.384
816.48
1046.14
1241.76
1275.62
1163.74
982.964
840.649
715.943
540.471
395.299
338.464
320.31
308.596
303.638
304.515
311.986
328.374
351.21
374.223
393.251
413.464
441.415
474.453
522.138
582.367
638.437
677.061
724.807
786.377
888.658
895.858
854.442
776.399
833.961
294
294
294
294
294
294
294
294
294
294
294
294
294.001
294.004
294.019
294.083
294.294
294.791
295.418
295.658
295.678
296.187
297.922
303.029
310.304
314.826
336.664
430.87
778.923
1055.82
1054.87
877.01
632.045
506.353
473.961
492.065
529.946
540.4
541.717
543.104
528.405
490.668
433.18
372.442
326.358
303.223
300.849
303.325
307.221
312.202
318.857
328.293
343.865
370.589
379.12
368.335
359.124
373.653
443.359
592.333
729.377
717.408
598.267
539.339
577.996
687.227
870.793
1139.38
1300.98
1306.35
1134.27
939.916
739.015
522.108
388.023
352.175
347.312
335.291
315.453
302.558
301.317
306.309
317.907
331.925
343.766
352.801
365.201
386.407
413.335
454.177
502.126
534.305
559.552
612.592
726.333
831.273
736.207
545.012
497.621
599.92
294
294
294
294
294
294
294
294
294
294
294
294
294
294
294.002
294.008
294.031
294.081
294.138
294.169
294.209
294.37
294.803
295.739
297.129
299.426
313.074
376.439
635.537
984.875
980.877
760.871
579.277
501.649
479.582
480.765
496.103
502.258
514.998
516.012
499.493
462.025
414.198
368.453
330.745
306.353
297.024
295.978
296.53
297.833
300.044
303.538
309.692
320.368
329.876
331.739
334.297
348.782
396.062
516.543
655.645
628.586
514.64
512.31
581.582
701.746
890.081
1175.24
1327.5
1275.22
1044.96
804.593
562.765
413.121
371.345
373.535
367.916
351.053
326.921
305.138
299.242
301.431
307.444
314.075
319.165
323.661
332.25
347.755
366.937
392.514
421.913
454.915
497.348
563.968
709.14
727.823
538.434
409.433
394.981
450.481
294
294
294
294
294
294
294
294
294
294
294
294
294
294
294
294.001
294.002
294.006
294.011
294.015
294.022
294.049