/*--------------------------------*- C++ -*----------------------------------*\
| =========                 |                                                 |
| \\      /  F ield         | OpenFOAM: The Open Source CFD Toolbox           |
|  \\    /   O peration     | Version:  2.3.0                                 |
|   \\  /    A nd           | Web:      www.OpenFOAM.org                      |
|    \\/     M anipulation  |                                                 |
\*---------------------------------------------------------------------------*/
FoamFile
{
    version     2.0;
    format      ascii;
    class       volScalarField;
    location    "0.03";
    object      thermo:alpha;
}
// * * * * * * * * * * * * * * * * * * * * * * * * * * * * * * * * * * * * * //

dimensions      [1 -1 -1 0 0 0 0];

internalField   nonuniform List<scalar> 
5000
(
2.61542e-05
2.61542e-05
2.61542e-05
2.61542e-05
2.61542e-05
2.61542e-05
2.61542e-05
2.61542e-05
2.61542e-05
2.61542e-05
2.61542e-05
2.61542e-05
2.61542e-05
2.61542e-05
2.61542e-05
2.61542e-05
2.61542e-05
2.61542e-05
2.61542e-05
2.61542e-05
2.61542e-05
2.61542e-05
2.61542e-05
2.61542e-05
2.61542e-05
2.61542e-05
2.61542e-05
2.61542e-05
2.61542e-05
2.61542e-05
2.61542e-05
2.61542e-05
2.61542e-05
2.61542e-05
2.61542e-05
2.61542e-05
2.61542e-05
2.61542e-05
2.61542e-05
2.61542e-05
2.61542e-05
2.61542e-05
2.61542e-05
2.61542e-05
2.61543e-05
2.61543e-05
2.61542e-05
2.61542e-05
2.61542e-05
2.61543e-05
2.61547e-05
2.61561e-05
2.61604e-05
2.61709e-05
2.6188e-05
2.62058e-05
2.62297e-05
2.62632e-05
2.6308e-05
2.63685e-05
2.64523e-05
2.65746e-05
2.67441e-05
2.6979e-05
2.72916e-05
2.7706e-05
2.79877e-05
2.77975e-05
2.74073e-05
2.70013e-05
2.66371e-05
2.64028e-05
2.63083e-05
2.63378e-05
2.64512e-05
2.67147e-05
2.71402e-05
2.77355e-05
2.81342e-05
2.81103e-05
2.79513e-05
2.77644e-05
2.75521e-05
2.71401e-05
2.6701e-05
2.64687e-05
2.64323e-05
2.64278e-05
2.64285e-05
2.64337e-05
2.64464e-05
2.64728e-05
2.65174e-05
2.65839e-05
2.66868e-05
2.68424e-05
2.70684e-05
2.73802e-05
2.77934e-05
2.88098e-05
2.61542e-05
2.61542e-05
2.61542e-05
2.61542e-05
2.61542e-05
2.61542e-05
2.61542e-05
2.61542e-05
2.61542e-05
2.61542e-05
2.61542e-05
2.61542e-05
2.61542e-05
2.61542e-05
2.61542e-05
2.61542e-05
2.61542e-05
2.61542e-05
2.61542e-05
2.61542e-05
2.61542e-05
2.61542e-05
2.61542e-05
2.61542e-05
2.61542e-05
2.61542e-05
2.61542e-05
2.61542e-05
2.61542e-05
2.61542e-05
2.61542e-05
2.61542e-05
2.61542e-05
2.61542e-05
2.61542e-05
2.61542e-05
2.61543e-05
2.61545e-05
2.6155e-05
2.61557e-05
2.61567e-05
2.61573e-05
2.61575e-05
2.61579e-05
2.61593e-05
2.61599e-05
2.61581e-05
2.61564e-05
2.61556e-05
2.61557e-05
2.61577e-05
2.61641e-05
2.61843e-05
2.62522e-05
2.63877e-05
2.65884e-05
2.68527e-05
2.71618e-05
2.75082e-05
2.79009e-05
2.83915e-05
2.90809e-05
3.0151e-05
3.18175e-05
3.43021e-05
3.85587e-05
4.49906e-05
4.71804e-05
4.49959e-05
3.94191e-05
3.26675e-05
2.7623e-05
2.66423e-05
2.66969e-05
2.699e-05
2.75469e-05
2.83158e-05
2.92558e-05
3.03437e-05
3.11162e-05
3.11785e-05
3.10109e-05
3.04496e-05
2.93722e-05
2.80555e-05
2.72139e-05
2.70451e-05
2.70537e-05
2.70562e-05
2.70307e-05
2.6983e-05
2.70028e-05
2.71249e-05
2.73994e-05
2.7857e-05
2.84925e-05
2.92946e-05
3.02215e-05
3.12188e-05
3.31074e-05
2.61542e-05
2.61542e-05
2.61542e-05
2.61542e-05
2.61542e-05
2.61542e-05
2.61542e-05
2.61542e-05
2.61542e-05
2.61542e-05
2.61542e-05
2.61542e-05
2.61542e-05
2.61542e-05
2.61542e-05
2.61542e-05
2.61542e-05
2.61542e-05
2.61542e-05
2.61542e-05
2.61542e-05
2.61542e-05
2.61542e-05
2.61542e-05
2.61542e-05
2.61542e-05
2.61542e-05
2.61542e-05
2.61542e-05
2.61542e-05
2.61542e-05
2.61542e-05
2.61542e-05
2.61542e-05
2.61545e-05
2.61552e-05
2.61573e-05
2.61623e-05
2.6173e-05
2.61925e-05
2.6218e-05
2.62384e-05
2.62456e-05
2.62608e-05
2.63085e-05
2.63454e-05
2.62967e-05
2.62352e-05
2.61976e-05
2.6178e-05
2.61736e-05
2.61896e-05
2.62435e-05
2.64425e-05
2.69039e-05
2.76716e-05
2.88182e-05
3.02207e-05
3.1661e-05
3.29644e-05
3.42093e-05
3.57952e-05
3.82308e-05
4.19016e-05
4.68214e-05
5.33285e-05
6.13005e-05
6.65685e-05
6.64174e-05
6.08521e-05
4.70591e-05
2.99462e-05
2.71319e-05
2.70776e-05
2.73782e-05
2.80808e-05
2.90201e-05
3.01425e-05
3.14756e-05
3.28799e-05
3.35782e-05
3.3559e-05
3.32801e-05
3.24489e-05
3.08629e-05
2.90769e-05
2.82868e-05
2.82161e-05
2.81889e-05
2.81025e-05
2.80698e-05
2.81883e-05
2.86189e-05
2.9479e-05
3.08579e-05
3.27039e-05
3.48922e-05
3.7179e-05
3.91165e-05
4.29642e-05
2.61542e-05
2.61542e-05
2.61542e-05
2.61542e-05
2.61542e-05
2.61542e-05
2.61542e-05
2.61542e-05
2.61542e-05
2.61542e-05
2.61542e-05
2.61542e-05
2.61542e-05
2.61542e-05
2.61542e-05
2.61542e-05
2.61542e-05
2.61542e-05
2.61542e-05
2.61542e-05
2.61542e-05
2.61542e-05
2.61542e-05
2.61542e-05
2.61542e-05
2.61544e-05
2.6155e-05
2.61561e-05
2.61563e-05
2.61552e-05
2.61546e-05
2.61544e-05
2.61544e-05
2.61548e-05
2.61562e-05
2.61618e-05
2.61814e-05
2.62393e-05
2.63781e-05
2.66625e-05
2.70906e-05
2.75165e-05
2.77072e-05
2.78948e-05
2.87547e-05
3.01636e-05
2.97194e-05
2.83266e-05
2.73156e-05
2.67279e-05
2.64331e-05
2.63303e-05
2.64151e-05
2.69501e-05
2.82562e-05
3.0305e-05
3.29834e-05
3.59851e-05
3.89352e-05
4.15645e-05
4.38081e-05
4.60908e-05
4.91112e-05
5.33186e-05
5.84939e-05
6.44653e-05
7.10887e-05
7.94148e-05
8.07269e-05
7.74591e-05
6.34018e-05
4.17815e-05
2.88938e-05
2.76589e-05
2.7811e-05
2.84495e-05
2.94911e-05
3.08332e-05
3.24745e-05
3.43911e-05
3.57953e-05
3.59322e-05
3.57472e-05
3.50945e-05
3.36119e-05
3.13905e-05
2.98178e-05
2.94545e-05
2.93628e-05
2.92458e-05
2.9247e-05
2.94939e-05
3.03342e-05
3.19568e-05
3.43165e-05
3.71454e-05
4.01771e-05
4.32565e-05
4.58873e-05
5.12451e-05
2.61542e-05
2.61542e-05
2.61542e-05
2.61542e-05
2.61542e-05
2.61542e-05
2.61542e-05
2.61542e-05
2.61542e-05
2.61542e-05
2.61542e-05
2.61542e-05
2.61543e-05
2.61546e-05
2.61548e-05
2.61545e-05
2.61543e-05
2.61542e-05
2.61542e-05
2.61542e-05
2.61542e-05
2.61542e-05
2.61543e-05
2.61546e-05
2.61557e-05
2.61601e-05
2.61748e-05
2.6202e-05
2.62132e-05
2.61845e-05
2.61685e-05
2.61605e-05
2.61573e-05
2.61574e-05
2.61625e-05
2.61816e-05
2.62504e-05
2.64674e-05
2.70285e-05
2.84462e-05
3.12682e-05
3.53431e-05
3.81373e-05
3.94011e-05
4.30588e-05
5.17533e-05
5.50397e-05
5.15874e-05
4.48076e-05
3.57598e-05
3.00839e-05
2.69504e-05
2.68887e-05
2.78442e-05
3.01148e-05
3.33624e-05
3.71759e-05
4.12382e-05
4.52571e-05
4.90249e-05
5.23916e-05
5.56057e-05
5.93608e-05
6.38987e-05
6.8519e-05
7.29354e-05
8.12255e-05
8.93542e-05
9.04037e-05
8.90475e-05
8.00554e-05
5.81213e-05
3.61252e-05
2.90796e-05
2.86438e-05
2.90465e-05
3.01073e-05
3.16995e-05
3.37336e-05
3.61756e-05
3.84931e-05
3.91767e-05
3.90242e-05
3.84106e-05
3.68791e-05
3.41945e-05
3.17057e-05
3.07868e-05
3.05267e-05
3.03598e-05
3.03789e-05
3.0739e-05
3.1882e-05
3.40252e-05
3.70133e-05
4.05295e-05
4.42569e-05
4.81295e-05
5.16637e-05
5.84814e-05
2.61542e-05
2.61542e-05
2.61542e-05
2.61542e-05
2.61542e-05
2.61542e-05
2.61542e-05
2.61542e-05
2.61542e-05
2.61542e-05
2.61543e-05
2.6155e-05
2.61581e-05
2.61668e-05
2.61745e-05
2.6167e-05
2.61601e-05
2.61569e-05
2.61554e-05
2.61548e-05
2.61548e-05
2.61554e-05
2.61573e-05
2.6163e-05
2.61819e-05
2.62459e-05
2.64394e-05
2.68876e-05
2.73274e-05
2.68474e-05
2.64962e-05
2.63098e-05
2.62209e-05
2.61863e-05
2.61886e-05
2.62415e-05
2.64473e-05
2.71007e-05
2.87865e-05
3.21474e-05
3.76611e-05
4.49258e-05
5.16758e-05
5.61602e-05
6.1273e-05
6.73552e-05
7.71607e-05
8.17302e-05
7.72462e-05
6.1687e-05
4.02394e-05
2.82603e-05
2.76394e-05
2.88863e-05
3.18961e-05
3.59467e-05
4.04271e-05
4.51141e-05
4.98867e-05
5.45639e-05
5.90633e-05
6.34027e-05
6.79613e-05
7.25403e-05
7.6245e-05
8.33628e-05
9.0839e-05
9.38043e-05
9.3724e-05
9.31136e-05
9.05872e-05
7.74919e-05
5.48227e-05
3.41919e-05
3.00846e-05
3.02272e-05
3.1134e-05
3.28232e-05
3.50909e-05
3.78289e-05
4.08612e-05
4.29649e-05
4.31738e-05
4.28809e-05
4.17467e-05
3.90027e-05
3.52225e-05
3.27946e-05
3.18525e-05
3.14652e-05
3.14809e-05
3.19361e-05
3.34033e-05
3.60775e-05
3.96811e-05
4.37929e-05
4.81036e-05
5.25813e-05
5.67947e-05
6.4534e-05
2.61542e-05
2.61542e-05
2.61542e-05
2.61542e-05
2.61542e-05
2.61543e-05
2.61542e-05
2.61542e-05
2.61543e-05
2.61547e-05
2.6157e-05
2.61701e-05
2.62223e-05
2.63736e-05
2.65816e-05
2.6474e-05
2.63115e-05
2.62294e-05
2.61896e-05
2.61738e-05
2.61736e-05
2.61867e-05
2.62196e-05
2.62939e-05
2.64678e-05
2.68108e-05
2.7747e-05
3.11243e-05
3.94912e-05
3.76025e-05
3.25329e-05
2.92352e-05
2.75925e-05
2.66618e-05
2.63023e-05
2.64015e-05
2.6905e-05
2.83775e-05
3.13363e-05
3.62234e-05
4.30901e-05
5.16232e-05
6.00012e-05
6.6542e-05
7.21513e-05
7.95427e-05
8.86443e-05
9.3164e-05
9.23397e-05
8.35681e-05
5.69578e-05
3.22108e-05
2.88475e-05
3.00706e-05
3.35234e-05
3.81872e-05
4.324e-05
4.85098e-05
5.39499e-05
5.95e-05
6.49515e-05
7.0164e-05
7.49063e-05
7.89945e-05
8.57202e-05
9.25218e-05
9.49277e-05
9.48245e-05
9.42034e-05
9.37216e-05
9.29312e-05
8.956e-05
7.23686e-05
4.58115e-05
3.28154e-05
3.21969e-05
3.28468e-05
3.44876e-05
3.68437e-05
3.97268e-05
4.30405e-05
4.6222e-05
4.80168e-05
4.83308e-05
4.80949e-05
4.67045e-05
4.30636e-05
3.79637e-05
3.42682e-05
3.26754e-05
3.25906e-05
3.31079e-05
3.48562e-05
3.7966e-05
4.20684e-05
4.66995e-05
5.1632e-05
5.67057e-05
6.18471e-05
7.00407e-05
2.61544e-05
2.61544e-05
2.61546e-05
2.61559e-05
2.61588e-05
2.6161e-05
2.61593e-05
2.61569e-05
2.61568e-05
2.61618e-05
2.619e-05
2.62883e-05
2.66701e-05
2.80191e-05
3.19709e-05
3.19994e-05
2.92685e-05
2.7698e-05
2.68881e-05
2.65507e-05
2.6458e-05
2.65631e-05
2.68045e-05
2.72183e-05
2.78397e-05
2.88772e-05
3.14531e-05
3.94122e-05
5.54693e-05
6.52049e-05
6.12065e-05
4.95722e-05
3.60831e-05
2.83164e-05
2.66104e-05
2.67377e-05
2.76566e-05
3.00395e-05
3.42201e-05
4.0201e-05
4.79688e-05
5.73078e-05
6.63888e-05
7.30344e-05
7.89615e-05
8.91032e-05
9.41571e-05
9.54257e-05
9.50026e-05
9.22032e-05
7.28073e-05
4.10497e-05
3.06632e-05
3.14745e-05
3.50055e-05
4.01723e-05
4.57794e-05
5.16322e-05
5.76918e-05
6.40141e-05
7.03191e-05
7.57871e-05
8.00581e-05
8.61921e-05
9.35109e-05
9.60314e-05
9.55792e-05
9.33764e-05
8.90155e-05
8.91029e-05
8.97829e-05
8.91867e-05
8.42115e-05
5.57816e-05
3.60911e-05
3.45882e-05
3.51713e-05
3.68709e-05
3.9434e-05
4.25675e-05
4.61596e-05
4.97992e-05
5.26857e-05
5.48543e-05
5.57564e-05
5.54366e-05
5.37692e-05
4.89119e-05
4.07016e-05
3.46445e-05
3.37534e-05
3.42968e-05
3.62743e-05
3.98083e-05
4.44016e-05
4.95696e-05
5.50109e-05
6.06864e-05
6.67836e-05
7.44947e-05
2.61847e-05
2.61945e-05
2.62107e-05
2.62839e-05
2.64039e-05
2.64919e-05
2.6424e-05
2.62918e-05
2.62384e-05
2.62543e-05
2.63744e-05
2.66998e-05
2.81415e-05
3.27379e-05
4.47148e-05
5.72803e-05
5.21878e-05
4.44399e-05
3.49382e-05
3.00069e-05
2.80348e-05
2.82566e-05
2.93208e-05
3.118e-05
3.3159e-05
3.53089e-05
3.97084e-05
4.95694e-05
6.36598e-05
8.12945e-05
8.5274e-05
7.71412e-05
5.51825e-05
3.38385e-05
2.74339e-05
2.73869e-05
2.87423e-05
3.2111e-05
3.73688e-05
4.42771e-05
5.29132e-05
6.31819e-05
7.23419e-05
7.81324e-05
8.84447e-05
9.47769e-05
9.56413e-05
9.50952e-05
9.47208e-05
9.31337e-05
8.49079e-05
5.34495e-05
3.33079e-05
3.32196e-05
3.65094e-05
4.21356e-05
4.83445e-05
5.47455e-05
6.14597e-05
6.84988e-05
7.52084e-05
8.01636e-05
8.53863e-05
9.30441e-05
9.70939e-05
9.68821e-05
9.46712e-05
8.64813e-05
7.75375e-05
7.80468e-05
8.08062e-05
8.12152e-05
7.7202e-05
5.39681e-05
3.82766e-05
3.73682e-05
3.8221e-05
4.03838e-05
4.33789e-05
4.68846e-05
5.08357e-05
5.47038e-05
5.80143e-05
6.09482e-05
6.30505e-05
6.31323e-05
6.25257e-05
5.98283e-05
5.16781e-05
3.95061e-05
3.51914e-05
3.55849e-05
3.76867e-05
4.16071e-05
4.6686e-05
5.23934e-05
5.84131e-05
6.46258e-05
7.1554e-05
7.75761e-05
2.76725e-05
2.87356e-05
2.89515e-05
3.04782e-05
3.35947e-05
3.7889e-05
3.91431e-05
3.42687e-05
3.02292e-05
2.83686e-05
2.7701e-05
2.80718e-05
3.0646e-05
3.81259e-05
5.36205e-05
7.01573e-05
7.99431e-05
7.4751e-05
5.9426e-05
4.12776e-05
3.21873e-05
3.27639e-05
3.60119e-05
4.13478e-05
4.57372e-05
4.86811e-05
5.2938e-05
5.96775e-05
7.54525e-05
9.10296e-05
9.31882e-05
9.11383e-05
7.74135e-05
4.99445e-05
2.9827e-05
2.85903e-05
3.0286e-05
3.46989e-05
4.09918e-05
4.88105e-05
5.83635e-05
6.93985e-05
7.73544e-05
8.75136e-05
9.53685e-05
9.59765e-05
9.43625e-05
8.84047e-05
8.8145e-05
8.95783e-05
8.71973e-05
6.36697e-05
3.64364e-05
3.50839e-05
3.81642e-05
4.41821e-05
5.10203e-05
5.80155e-05
6.537e-05
7.30658e-05
7.93615e-05
8.4573e-05
9.17107e-05
9.74683e-05
9.8321e-05
9.6816e-05
9.05444e-05
7.62565e-05
6.78031e-05
6.68551e-05
6.72192e-05
6.69326e-05
6.40351e-05
4.8507e-05
4.05085e-05
4.06279e-05
4.23564e-05
4.53275e-05
4.88009e-05
5.25209e-05
5.64035e-05
6.00879e-05
6.31465e-05
6.56937e-05
6.74463e-05
6.76305e-05
6.74016e-05
6.62314e-05
6.08626e-05
4.67731e-05
3.72818e-05
3.71308e-05
3.91365e-05
4.33857e-05
4.89897e-05
5.52028e-05
6.17974e-05
6.84688e-05
7.56919e-05
8.00005e-05
9.53104e-05
8.59346e-05
8.18033e-05
8.35357e-05
8.79113e-05
9.10146e-05
9.15242e-05
8.79458e-05
7.18261e-05
5.03697e-05
3.28736e-05
3.21093e-05
3.55335e-05
4.57343e-05
6.12606e-05
8.07798e-05
8.9808e-05
8.92335e-05
8.29951e-05
6.37403e-05
4.287e-05
4.27189e-05
4.79724e-05
5.57564e-05
6.01796e-05
6.25614e-05
6.71061e-05
7.79382e-05
9.28452e-05
9.45398e-05
9.32122e-05
9.23908e-05
8.86894e-05
6.38352e-05
3.41896e-05
3.04175e-05
3.23811e-05
3.76972e-05
4.50038e-05
5.3779e-05
6.42669e-05
7.47083e-05
8.6599e-05
9.58339e-05
9.71466e-05
9.46866e-05
8.49986e-05
7.38165e-05
7.46883e-05
8.05686e-05
8.29512e-05
6.87325e-05
3.96512e-05
3.69753e-05
4.00812e-05
4.65056e-05
5.39413e-05
6.16047e-05
6.96469e-05
7.72729e-05
8.31313e-05
9.01797e-05
9.68305e-05
9.9408e-05
9.89347e-05
9.53794e-05
8.4987e-05
7.02951e-05
5.8906e-05
5.48122e-05
5.35031e-05
5.08787e-05
4.68732e-05
4.30922e-05
4.28255e-05
4.45929e-05
4.79914e-05
5.16628e-05
5.50782e-05
5.82947e-05
6.12561e-05
6.38152e-05
6.59308e-05
6.75635e-05
6.87246e-05
6.92013e-05
6.91602e-05
6.84962e-05
6.5636e-05
5.41871e-05
4.04242e-05
3.88719e-05
4.0706e-05
4.51984e-05
5.13475e-05
5.81044e-05
6.52312e-05
7.21904e-05
7.90287e-05
8.20167e-05
0.000100295
9.90246e-05
9.85236e-05
9.84027e-05
9.85997e-05
9.88088e-05
9.90967e-05
9.79333e-05
9.05125e-05
7.02459e-05
4.53282e-05
4.0042e-05
4.42369e-05
5.63295e-05
7.39218e-05
9.09902e-05
9.05788e-05
8.24063e-05
7.44909e-05
6.1657e-05
5.02906e-05
5.29947e-05
6.0956e-05
6.94213e-05
7.614e-05
8.03213e-05
8.67857e-05
9.6302e-05
9.78861e-05
9.18602e-05
8.01058e-05
8.29216e-05
8.49681e-05
7.36503e-05
4.02527e-05
3.29794e-05
3.51054e-05
4.11816e-05
4.94766e-05
5.92407e-05
7.01664e-05
8.15113e-05
9.48775e-05
9.85509e-05
9.69145e-05
8.6834e-05
6.88237e-05
6.48839e-05
6.67812e-05
7.3594e-05
7.78071e-05
6.65893e-05
4.12684e-05
3.88792e-05
4.2254e-05
4.91966e-05
5.72305e-05
6.55982e-05
7.41877e-05
8.09452e-05
8.80631e-05
9.55742e-05
9.95117e-05
0.000100303
9.9235e-05
9.35052e-05
8.2484e-05
6.51356e-05
5.0994e-05
4.44318e-05
4.22099e-05
4.1803e-05
4.20052e-05
4.29743e-05
4.60779e-05
5.05057e-05
5.48108e-05
5.80312e-05
6.02633e-05
6.19222e-05
6.33973e-05
6.48855e-05
6.64421e-05
6.78316e-05
6.88947e-05
6.96403e-05
6.97112e-05
6.929e-05
6.74326e-05
5.95366e-05
4.42077e-05
4.0779e-05
4.24257e-05
4.70857e-05
5.3729e-05
6.10515e-05
6.86534e-05
7.55633e-05
8.16553e-05
8.38636e-05
0.000100213
0.000100391
0.000100515
0.000100549
0.000100576
0.000100617
0.000100924
9.85629e-05
8.68386e-05
6.7955e-05
5.16009e-05
5.04903e-05
5.5959e-05
6.85814e-05
9.08145e-05
9.5268e-05
8.79025e-05
6.63394e-05
5.85218e-05
5.51957e-05
5.60431e-05
6.24909e-05
7.25729e-05
8.43209e-05
9.22928e-05
9.62055e-05
9.73206e-05
9.98143e-05
9.8524e-05
8.07087e-05
6.6831e-05
7.04915e-05
7.91007e-05
7.33657e-05
4.35392e-05
3.57709e-05
3.827e-05
4.52146e-05
5.45336e-05
6.52545e-05
7.50977e-05
8.9856e-05
9.88256e-05
9.90662e-05
9.4876e-05
7.33682e-05
6.05549e-05
5.88083e-05
6.08973e-05
6.82496e-05
7.25342e-05
6.22888e-05
4.20622e-05
4.07833e-05
4.47171e-05
5.2293e-05
6.09799e-05
7.00503e-05
7.82685e-05
8.51008e-05
9.34735e-05
9.87503e-05
0.000100789
0.000100842
9.91441e-05
9.25146e-05
8.20186e-05
6.29187e-05
4.74752e-05
4.20832e-05
4.14459e-05
4.18063e-05
4.28212e-05
4.60907e-05
5.18234e-05
5.71505e-05
6.04767e-05
6.14692e-05
6.19394e-05
6.24833e-05
6.33102e-05
6.45855e-05
6.64713e-05
6.80642e-05
6.89291e-05
6.95873e-05
6.97892e-05
6.95842e-05
6.82799e-05
6.28262e-05
4.79663e-05
4.28349e-05
4.42786e-05
4.90803e-05
5.62016e-05
6.40486e-05
7.2034e-05
7.84745e-05
8.37173e-05
8.60213e-05
0.000100128
0.000100152
0.000100195
0.000100254
0.000100323
0.000100476
0.000100776
9.92134e-05
9.17894e-05
7.19866e-05
6.15836e-05
6.11924e-05
6.902e-05
8.7594e-05
9.81872e-05
9.77911e-05
8.6133e-05
6.777e-05
6.0328e-05
5.97718e-05
6.37882e-05
7.34117e-05
8.69835e-05
9.64403e-05
9.71434e-05
9.7188e-05
9.86548e-05
0.000100642
9.67677e-05
6.94646e-05
5.73386e-05
6.17533e-05
7.14709e-05
6.81757e-05
4.39927e-05
3.84624e-05
4.18816e-05
5.00242e-05
6.03221e-05
7.11272e-05
8.20749e-05
9.65429e-05
0.000100304
9.89628e-05
8.94464e-05
6.56328e-05
5.48179e-05
5.4639e-05
5.69819e-05
6.40423e-05
6.73978e-05
5.77312e-05
4.26539e-05
4.26831e-05
4.75092e-05
5.57798e-05
6.51801e-05
7.46534e-05
8.19392e-05
9.03797e-05
9.77905e-05
0.000100239
0.000100991
0.000101125
9.8974e-05
9.23628e-05
8.19971e-05
6.31669e-05
4.89474e-05
4.43565e-05
4.34458e-05
4.37831e-05
4.59286e-05
5.12784e-05
5.75448e-05
6.0732e-05
6.11528e-05
6.12749e-05
6.14824e-05
6.20451e-05
6.34603e-05
6.59485e-05
6.84286e-05
6.88066e-05
6.78758e-05
6.72099e-05
6.76879e-05
6.85654e-05
6.79455e-05
6.46385e-05
5.15445e-05
4.49818e-05
4.62395e-05
5.11593e-05
5.87588e-05
6.70926e-05
7.52722e-05
8.10911e-05
8.58743e-05
8.83977e-05
0.000100124
0.000100123
0.000100125
0.00010013
0.000100141
0.000100174
0.000100367
0.000100254
9.77566e-05
8.86426e-05
7.63018e-05
7.87963e-05
8.88038e-05
9.75358e-05
0.000100353
9.90821e-05
9.10479e-05
7.33571e-05
6.59377e-05
6.71519e-05
7.52805e-05
8.7979e-05
9.70473e-05
9.69733e-05
9.51812e-05
9.50345e-05
9.62518e-05
9.94933e-05
9.41905e-05
6.38693e-05
4.66168e-05
5.09124e-05
6.08161e-05
5.81438e-05
4.22746e-05
4.09994e-05
4.62392e-05
5.58573e-05
6.67226e-05
7.59849e-05
9.03577e-05
9.90566e-05
0.00010089
9.86739e-05
8.37076e-05
5.94713e-05
5.13169e-05
5.19045e-05
5.48062e-05
6.16406e-05
6.31776e-05
5.35367e-05
4.34096e-05
4.47099e-05
5.0702e-05
5.97647e-05
6.98259e-05
7.87328e-05
8.66555e-05
9.55895e-05
9.91202e-05
0.000100144
0.00010061
0.000101157
9.90513e-05
9.37695e-05
8.5057e-05
7.06703e-05
5.5668e-05
4.89054e-05
4.76978e-05
4.81873e-05
5.11487e-05
5.69071e-05
6.0599e-05
6.08698e-05
6.08669e-05
6.1109e-05
6.18284e-05
6.34261e-05
6.66028e-05
6.92691e-05
6.91303e-05
6.72847e-05
6.33332e-05
6.21765e-05
6.27804e-05
6.49525e-05
6.63162e-05
6.42897e-05
5.46929e-05
4.72505e-05
4.83183e-05
5.33312e-05
6.14153e-05
7.02081e-05
7.81857e-05
8.32313e-05
8.81383e-05
9.11002e-05
0.000100124
0.000100119
0.000100109
0.00010009
0.000100059
0.000100011
9.99848e-05
0.000100169
9.94723e-05
9.73997e-05
9.52137e-05
9.65985e-05
9.72855e-05
9.92189e-05
0.000100146
9.99021e-05
9.71794e-05
8.76084e-05
8.11045e-05
8.2915e-05
9.13617e-05
9.73039e-05
9.64022e-05
9.25182e-05
8.97811e-05
8.96771e-05
9.23051e-05
9.80727e-05
9.29815e-05
6.11987e-05
4.08198e-05
4.08546e-05
4.49514e-05
4.39387e-05
4.133e-05
4.41165e-05
5.22665e-05
6.2929e-05
7.22632e-05
8.48859e-05
9.72534e-05
0.000100227
0.000101141
9.81539e-05
8.05392e-05
5.49858e-05
4.90824e-05
5.03354e-05
5.43535e-05
6.0289e-05
5.97101e-05
4.95631e-05
4.44604e-05
4.7031e-05
5.43791e-05
6.42549e-05
7.45174e-05
8.25639e-05
9.22368e-05
9.85029e-05
9.90445e-05
9.93018e-05
0.00010021
0.000101176
9.95657e-05
9.57513e-05
8.90538e-05
7.70655e-05
6.33641e-05
5.53368e-05
5.35445e-05
5.40492e-05
5.69888e-05
6.04718e-05
6.08706e-05
6.08936e-05
6.15156e-05
6.26836e-05
6.46862e-05
6.85412e-05
7.06918e-05
7.01298e-05
6.71358e-05
6.21282e-05
5.90984e-05
5.8884e-05
5.93334e-05
6.1201e-05
6.4072e-05
6.32956e-05
5.66365e-05
4.9543e-05
5.04922e-05
5.56682e-05
6.42236e-05
7.34298e-05
8.09375e-05
8.54807e-05
9.07121e-05
9.3859e-05
0.000100119
0.000100097
0.000100062
0.000100004
9.99079e-05
9.97505e-05
9.95602e-05
9.95e-05
9.95332e-05
9.92784e-05
9.81136e-05
9.79713e-05
9.85374e-05
9.84262e-05
9.85059e-05
9.91613e-05
9.87006e-05
9.73878e-05
9.60481e-05
9.67385e-05
9.71291e-05
9.59051e-05
9.05777e-05
8.50782e-05
8.26784e-05
8.29638e-05
8.73966e-05
9.59501e-05
9.34583e-05
6.1356e-05
4.16273e-05
3.88257e-05
3.94698e-05
4.07015e-05
4.31743e-05
4.99258e-05
5.99729e-05
6.95965e-05
8.09606e-05
9.49068e-05
9.79516e-05
9.95582e-05
0.000100751
9.78976e-05
8.00086e-05
5.33162e-05
4.7213e-05
4.91379e-05
5.44566e-05
5.85188e-05
5.60125e-05
4.67811e-05
4.58827e-05
4.99175e-05
5.86518e-05
6.92717e-05
7.86211e-05
8.80964e-05
9.72613e-05
9.80964e-05
9.74914e-05
9.82221e-05
0.00010005
0.000101152
0.000100196
9.7822e-05
9.27246e-05
8.29648e-05
7.15603e-05
6.33089e-05
6.05015e-05
6.03987e-05
6.12833e-05
6.17169e-05
6.18889e-05
6.26321e-05
6.44683e-05
6.78119e-05
7.21055e-05
7.34088e-05
7.23743e-05
6.74197e-05
6.13573e-05
5.84799e-05
5.77853e-05
5.78348e-05
5.81629e-05
5.93353e-05
6.21511e-05
6.21666e-05
5.75087e-05
5.16271e-05
5.26809e-05
5.82165e-05
6.72591e-05
7.65355e-05
8.32276e-05
8.78405e-05
9.34646e-05
9.65554e-05
0.000100086
9.99663e-05
9.97915e-05
9.9569e-05
9.92862e-05
9.89079e-05
9.854e-05
9.839e-05
9.82815e-05
9.82677e-05
9.79865e-05
9.72994e-05
9.66673e-05
9.58968e-05
9.5872e-05
9.64712e-05
9.74502e-05
9.73636e-05
9.72012e-05
9.6549e-05
9.40256e-05
8.9185e-05
8.1582e-05
7.62825e-05
7.44228e-05
7.52332e-05
8.13433e-05
9.23644e-05
9.70597e-05
6.6423e-05
4.81473e-05
4.12431e-05
4.1229e-05
4.31584e-05
4.90683e-05
5.83112e-05
6.74993e-05
7.87461e-05
9.24949e-05
9.66106e-05
9.64383e-05
9.78687e-05
0.000100317
9.83025e-05
8.16007e-05
5.36618e-05
4.54238e-05
4.75924e-05
5.35951e-05
5.59141e-05
5.19437e-05
4.61401e-05
4.7565e-05
5.35175e-05
6.35838e-05
7.42885e-05
8.30534e-05
9.41515e-05
9.80443e-05
9.58144e-05
9.59052e-05
9.75812e-05
9.99585e-05
0.000100959
0.000100751
9.94096e-05
9.57092e-05
8.82739e-05
7.83403e-05
7.10487e-05
6.69468e-05
6.49723e-05
6.37893e-05
6.37943e-05
6.47411e-05
6.75075e-05
7.18064e-05
7.60281e-05
7.75299e-05
7.61068e-05
6.89563e-05
6.14199e-05
5.8259e-05
5.75322e-05
5.74885e-05
5.75544e-05
5.7807e-05
5.86584e-05
6.09554e-05
6.11581e-05
5.76839e-05
5.34008e-05
5.48733e-05
6.09844e-05
7.05523e-05
7.95915e-05
8.56701e-05
9.05428e-05
9.62365e-05
9.86994e-05
9.97457e-05
9.90107e-05
9.81117e-05
9.7268e-05
9.65758e-05
9.59566e-05
9.54449e-05
9.5235e-05
9.49537e-05
9.4821e-05
9.43205e-05
9.31439e-05
9.24203e-05
9.17779e-05
9.19464e-05
9.24757e-05
9.32312e-05
9.35439e-05
9.30851e-05
9.08603e-05
8.59504e-05
7.94887e-05
7.17224e-05
6.70285e-05
6.59154e-05
6.72769e-05
7.41848e-05
8.58399e-05
9.65567e-05
7.77083e-05
5.86068e-05
4.85992e-05
4.70989e-05
5.03957e-05
5.83744e-05
6.61753e-05
7.75943e-05
9.17654e-05
9.61978e-05
9.28395e-05
9.36797e-05
9.64794e-05
9.98146e-05
9.87857e-05
8.34163e-05
5.50154e-05
4.42912e-05
4.53494e-05
5.05996e-05
5.19798e-05
4.8096e-05
4.66398e-05
4.98269e-05
5.82026e-05
6.90801e-05
7.85321e-05
8.95613e-05
9.7769e-05
9.52518e-05
9.35424e-05
9.47317e-05
9.73979e-05
9.94875e-05
0.000100305
0.000100751
0.00010041
9.79856e-05
9.21875e-05
8.35123e-05
7.67216e-05
7.17261e-05
6.81065e-05
6.72961e-05
6.80487e-05
7.06619e-05
7.47828e-05
7.97166e-05
8.16346e-05
8.0775e-05
7.28623e-05
6.28841e-05
5.8559e-05
5.75831e-05
5.74995e-05
5.75304e-05
5.75975e-05
5.78192e-05
5.85996e-05
6.03556e-05
6.03546e-05
5.74953e-05
5.49415e-05
5.71109e-05
6.40033e-05
7.41139e-05
8.22024e-05
8.82637e-05
9.348e-05
9.85158e-05
0.000100018
9.50313e-05
8.98292e-05
8.8115e-05
8.79343e-05
8.79971e-05
8.78694e-05
8.75631e-05
8.73471e-05
8.67584e-05
8.64114e-05
8.58453e-05
8.49941e-05
8.50422e-05
8.50995e-05
8.56741e-05
8.59328e-05
8.60437e-05
8.55361e-05
8.40891e-05
8.04911e-05
7.48704e-05
6.91547e-05
6.19406e-05
5.82234e-05
5.80596e-05
5.99223e-05
6.64235e-05
7.67988e-05
9.24048e-05
9.23042e-05
6.84925e-05
5.92278e-05
5.7806e-05
6.09174e-05
6.75313e-05
7.8624e-05
9.24825e-05
9.51427e-05
8.93672e-05
8.90987e-05
9.13684e-05
9.48255e-05
9.84322e-05
9.91838e-05
8.65462e-05
5.87366e-05
4.42801e-05
4.36546e-05
4.54935e-05
4.68125e-05
4.63935e-05
4.79932e-05
5.36469e-05
6.37636e-05
7.42943e-05
8.42484e-05
9.61212e-05
9.56147e-05
9.14384e-05
9.20233e-05
9.44747e-05
9.70107e-05
9.83257e-05
9.90684e-05
9.99539e-05
0.000100801
9.94729e-05
9.52872e-05
8.83144e-05
8.04277e-05
7.53487e-05
7.26154e-05
7.23752e-05
7.37773e-05
7.73363e-05
8.23387e-05
8.47949e-05
8.45721e-05
7.91059e-05
6.69122e-05
5.98344e-05
5.79803e-05
5.79988e-05
5.80927e-05
5.80409e-05
5.80122e-05
5.81707e-05
5.8834e-05
5.9911e-05
5.96884e-05
5.71951e-05
5.6371e-05
5.94258e-05
6.74296e-05
7.74893e-05
8.47997e-05
9.1197e-05
9.64183e-05
9.98861e-05
0.00010032
4.14223e-05
5.21894e-05
5.92833e-05
6.41812e-05
6.74324e-05
6.94036e-05
7.00321e-05
6.9991e-05
6.92472e-05
6.98942e-05
7.07547e-05
7.17169e-05
7.30466e-05
7.38187e-05
7.38975e-05
7.3327e-05
7.24737e-05
7.1174e-05
6.95276e-05
6.6369e-05
6.21916e-05
5.78675e-05
5.24669e-05
5.10554e-05
5.18892e-05
5.41263e-05
5.90024e-05
6.66087e-05
8.04744e-05
9.5234e-05
8.79747e-05
7.21662e-05
6.97144e-05
7.37343e-05
8.37241e-05
9.5476e-05
9.25658e-05
8.45073e-05
8.38183e-05
8.58046e-05
8.86117e-05
9.14367e-05
9.56662e-05
9.91033e-05
9.07193e-05
6.39426e-05
4.65611e-05
4.38909e-05
4.42458e-05
4.5346e-05
4.68228e-05
5.09075e-05
5.94584e-05
7.01009e-05
7.88921e-05
9.16524e-05
9.66946e-05
9.03268e-05
8.95994e-05
9.15741e-05
9.43486e-05
9.57268e-05
9.61837e-05
9.67934e-05
9.83846e-05
0.000100384
0.000100427
9.79655e-05
9.32895e-05
8.69428e-05
8.11809e-05
7.81795e-05
7.85148e-05
8.13391e-05
8.55151e-05
8.76384e-05
8.76636e-05
8.47985e-05
7.49611e-05
6.36171e-05
5.93326e-05
5.92285e-05
5.92929e-05
5.91405e-05
5.86756e-05
5.83493e-05
5.83733e-05
5.87417e-05
5.92207e-05
5.88365e-05
5.71507e-05
5.78167e-05
6.22736e-05
7.13367e-05
8.08162e-05
8.76928e-05
9.43806e-05
9.87602e-05
0.000100146
9.89745e-05
2.7473e-05
3.05024e-05
3.39598e-05
3.73711e-05
4.031e-05
4.23165e-05
4.33769e-05
4.44369e-05
4.58591e-05
4.81837e-05
5.03646e-05
5.23381e-05
5.35491e-05
5.39443e-05
5.35585e-05
5.29509e-05
5.26492e-05
5.25955e-05
5.23864e-05
5.09967e-05
4.86666e-05
4.66977e-05
4.57321e-05
4.66132e-05
4.85125e-05
5.05078e-05
5.31869e-05
5.71302e-05
6.4423e-05
7.95661e-05
9.34714e-05
9.43751e-05
9.14871e-05
9.50672e-05
9.449e-05
8.50624e-05
7.73724e-05
7.69196e-05
7.90735e-05
8.12325e-05
8.31633e-05
8.58843e-05
9.10405e-05
9.76185e-05
9.58731e-05
7.11487e-05
5.34429e-05
4.65978e-05
4.58921e-05
4.69344e-05
4.99161e-05
5.69983e-05
6.67699e-05
7.55872e-05
8.73981e-05
9.72019e-05
9.05148e-05
8.74179e-05
8.90309e-05
9.16245e-05
9.30847e-05
9.30083e-05
9.29134e-05
9.36217e-05
9.60887e-05
9.94244e-05
0.000100758
9.9747e-05
9.75082e-05
9.42753e-05
9.10574e-05
8.89634e-05
8.9117e-05
9.02755e-05
9.11825e-05
9.09147e-05
8.87435e-05
8.32135e-05
7.24096e-05
6.38019e-05
6.19415e-05
6.16177e-05
6.14031e-05
6.06653e-05
5.94721e-05
5.86746e-05
5.83884e-05
5.83281e-05
5.82903e-05
5.78749e-05
5.76113e-05
5.96472e-05
6.59478e-05
7.56999e-05
8.39613e-05
9.11507e-05
9.75517e-05
9.99014e-05
9.84496e-05
9.5525e-05
2.63517e-05
2.66816e-05
2.71707e-05
2.77349e-05
2.83809e-05
2.90522e-05
2.96938e-05
3.04218e-05
3.13236e-05
3.24368e-05
3.34421e-05
3.42799e-05
3.48517e-05
3.52634e-05
3.55352e-05
3.6007e-05
3.67315e-05
3.76196e-05
3.84407e-05
3.91182e-05
3.99516e-05
4.11195e-05
4.31334e-05
4.55755e-05
4.76387e-05
4.88932e-05
5.01551e-05
5.1883e-05
5.47491e-05
6.06975e-05
6.9641e-05
7.90332e-05
8.21035e-05
7.82351e-05
7.16325e-05
6.86353e-05
6.91905e-05
7.10635e-05
7.32307e-05
7.40827e-05
7.52565e-05
7.81053e-05
8.42004e-05
9.29733e-05
9.80401e-05
8.28519e-05
6.32994e-05
5.41863e-05
5.1223e-05
5.22279e-05
5.71767e-05
6.54934e-05
7.33751e-05
8.47619e-05
9.69017e-05
9.11256e-05
8.55946e-05
8.67828e-05
8.91464e-05
9.01924e-05
8.97637e-05
8.88083e-05
8.86431e-05
8.9905e-05
9.35727e-05
9.78137e-05
9.99769e-05
0.00010042
9.97298e-05
9.85517e-05
9.73363e-05
9.61619e-05
9.57576e-05
9.54269e-05
9.46449e-05
9.25278e-05
8.86043e-05
8.24962e-05
7.37301e-05
6.80912e-05
6.62086e-05
6.56086e-05
6.49501e-05
6.32511e-05
6.08603e-05
5.92726e-05
5.86039e-05
5.82491e-05
5.80267e-05
5.79679e-05
5.87899e-05
6.24355e-05
7.07092e-05
8.00028e-05
8.76793e-05
9.50189e-05
9.93943e-05
9.87736e-05
9.42438e-05
9.02765e-05
2.62803e-05
2.63056e-05
2.63522e-05
2.64212e-05
2.65155e-05
2.66441e-05
2.67858e-05
2.69603e-05
2.7184e-05
2.74695e-05
2.77689e-05
2.80584e-05
2.83315e-05
2.86141e-05
2.89487e-05
2.95433e-05
3.03883e-05
3.12362e-05
3.26592e-05
3.49503e-05
3.7792e-05
4.09772e-05
4.41639e-05
4.64602e-05
4.76851e-05
4.83492e-05
4.90363e-05
4.99951e-05
5.11966e-05
5.27632e-05
5.45805e-05
5.68929e-05
5.85983e-05
5.99098e-05
6.09353e-05
6.19892e-05
6.34128e-05
6.477e-05
6.56166e-05
6.55059e-05
6.6519e-05
6.96255e-05
7.56872e-05
8.4798e-05
9.54055e-05
9.52587e-05
7.44444e-05
6.50265e-05
6.1856e-05
6.25854e-05
6.71126e-05
7.39385e-05
8.45996e-05
9.67272e-05
9.0959e-05
8.40299e-05
8.48033e-05
8.67421e-05
8.75348e-05
8.62032e-05
8.40762e-05
8.31163e-05
8.3541e-05
8.61731e-05
9.11167e-05
9.56489e-05
9.78101e-05
9.89504e-05
9.96971e-05
9.99403e-05
9.97094e-05
9.93356e-05
9.90595e-05
9.84699e-05
9.68082e-05
9.33217e-05
8.88438e-05
8.3618e-05
7.79253e-05
7.40289e-05
7.2438e-05
7.17308e-05
7.05978e-05
6.76919e-05
6.36506e-05
6.07234e-05
5.93696e-05
5.87449e-05
5.8543e-05
5.87931e-05
6.1062e-05
6.69841e-05
7.61143e-05
8.40814e-05
9.21793e-05
9.8362e-05
9.85134e-05
9.39795e-05
8.80381e-05
8.3998e-05
2.62758e-05
2.62776e-05
2.62816e-05
2.62891e-05
2.63004e-05
2.63181e-05
2.63415e-05
2.63767e-05
2.64261e-05
2.64905e-05
2.65674e-05
2.66575e-05
2.67735e-05
2.69543e-05
2.72434e-05
2.78242e-05
2.92353e-05
3.13944e-05
3.42208e-05
3.77907e-05
4.17019e-05
4.49302e-05
4.68476e-05
4.74175e-05
4.77739e-05
4.82045e-05
4.88646e-05
4.98277e-05
5.10375e-05
5.22005e-05
5.34105e-05
5.46973e-05
5.59971e-05
5.7184e-05
5.81836e-05
5.88779e-05
5.93491e-05
5.92614e-05
5.88625e-05
5.86648e-05
5.96596e-05
6.24336e-05
6.76237e-05
7.50878e-05
8.61035e-05
9.62397e-05
9.26967e-05