/*--------------------------------*- C++ -*----------------------------------*\
| =========                 |                                                 |
| \\      /  F ield         | OpenFOAM: The Open Source CFD Toolbox           |
|  \\    /   O peration     | Version:  2.3.0                                 |
|   \\  /    A nd           | Web:      www.OpenFOAM.org                      |
|    \\/     M anipulation  |                                                 |
\*---------------------------------------------------------------------------*/
FoamFile
{
    version     2.0;
    format      ascii;
    class       volScalarField;
    location    "0.03";
    object      thermo:mu;
}
// * * * * * * * * * * * * * * * * * * * * * * * * * * * * * * * * * * * * * //

dimensions      [1 -1 -1 0 0 0 0];

internalField   nonuniform List<scalar> 
5000
(
1.81402e-05
1.81402e-05
1.81402e-05
1.81402e-05
1.81402e-05
1.81402e-05
1.81402e-05
1.81402e-05
1.81402e-05
1.81402e-05
1.81402e-05
1.81402e-05
1.81402e-05
1.81402e-05
1.81402e-05
1.81402e-05
1.81402e-05
1.81402e-05
1.81402e-05
1.81402e-05
1.81402e-05
1.81402e-05
1.81402e-05
1.81402e-05
1.81402e-05
1.81402e-05
1.81402e-05
1.81402e-05
1.81402e-05
1.81402e-05
1.81402e-05
1.81402e-05
1.81402e-05
1.81402e-05
1.81402e-05
1.81402e-05
1.81402e-05
1.81402e-05
1.81402e-05
1.81402e-05
1.81402e-05
1.81402e-05
1.81402e-05
1.81403e-05
1.81403e-05
1.81403e-05
1.81402e-05
1.81402e-05
1.81402e-05
1.81403e-05
1.81406e-05
1.81415e-05
1.81446e-05
1.81519e-05
1.81639e-05
1.81764e-05
1.81931e-05
1.82166e-05
1.82479e-05
1.82903e-05
1.83491e-05
1.84348e-05
1.85537e-05
1.87184e-05
1.89378e-05
1.92288e-05
1.94268e-05
1.92931e-05
1.9019e-05
1.8734e-05
1.84786e-05
1.83144e-05
1.82482e-05
1.82689e-05
1.83483e-05
1.8533e-05
1.88315e-05
1.92495e-05
1.95297e-05
1.95129e-05
1.94012e-05
1.92698e-05
1.91207e-05
1.88314e-05
1.85234e-05
1.83606e-05
1.83351e-05
1.83319e-05
1.83324e-05
1.83361e-05
1.8345e-05
1.83635e-05
1.83947e-05
1.84413e-05
1.85135e-05
1.86226e-05
1.87811e-05
1.9e-05
1.92902e-05
2.0005e-05
1.81402e-05
1.81402e-05
1.81402e-05
1.81402e-05
1.81402e-05
1.81402e-05
1.81402e-05
1.81402e-05
1.81402e-05
1.81402e-05
1.81402e-05
1.81402e-05
1.81402e-05
1.81402e-05
1.81402e-05
1.81402e-05
1.81402e-05
1.81402e-05
1.81402e-05
1.81402e-05
1.81402e-05
1.81402e-05
1.81402e-05
1.81402e-05
1.81402e-05
1.81402e-05
1.81402e-05
1.81402e-05
1.81402e-05
1.81402e-05
1.81402e-05
1.81402e-05
1.81402e-05
1.81402e-05
1.81402e-05
1.81402e-05
1.81403e-05
1.81404e-05
1.81407e-05
1.81413e-05
1.81419e-05
1.81424e-05
1.81425e-05
1.81428e-05
1.81438e-05
1.81442e-05
1.8143e-05
1.81418e-05
1.81412e-05
1.81412e-05
1.81427e-05
1.81471e-05
1.81613e-05
1.82089e-05
1.83038e-05
1.84445e-05
1.86298e-05
1.88466e-05
1.90899e-05
1.93658e-05
1.97107e-05
2.01958e-05
2.095e-05
2.21273e-05
2.3889e-05
2.69234e-05
3.1542e-05
3.31211e-05
3.15458e-05
2.75392e-05
2.27292e-05
1.91705e-05
1.84823e-05
1.85205e-05
1.87262e-05
1.9117e-05
1.96574e-05
2.03189e-05
2.10859e-05
2.16315e-05
2.16755e-05
2.1557e-05
2.11607e-05
2.04009e-05
1.94744e-05
1.88832e-05
1.87648e-05
1.87708e-05
1.87726e-05
1.87546e-05
1.87212e-05
1.87351e-05
1.88208e-05
1.90135e-05
1.93349e-05
1.97817e-05
2.03462e-05
2.09997e-05
2.1704e-05
2.3041e-05
1.81402e-05
1.81402e-05
1.81402e-05
1.81402e-05
1.81402e-05
1.81402e-05
1.81402e-05
1.81402e-05
1.81402e-05
1.81402e-05
1.81402e-05
1.81402e-05
1.81402e-05
1.81402e-05
1.81402e-05
1.81402e-05
1.81402e-05
1.81402e-05
1.81402e-05
1.81402e-05
1.81402e-05
1.81402e-05
1.81402e-05
1.81402e-05
1.81402e-05
1.81402e-05
1.81402e-05
1.81402e-05
1.81402e-05
1.81402e-05
1.81402e-05
1.81402e-05
1.81402e-05
1.81402e-05
1.81404e-05
1.81409e-05
1.81424e-05
1.81459e-05
1.81534e-05
1.81671e-05
1.81849e-05
1.81992e-05
1.82043e-05
1.82149e-05
1.82484e-05
1.82742e-05
1.82401e-05
1.81969e-05
1.81706e-05
1.81569e-05
1.81538e-05
1.8165e-05
1.82028e-05
1.83422e-05
1.86658e-05
1.92046e-05
2.00109e-05
2.09991e-05
2.20166e-05
2.29396e-05
2.38231e-05
2.49512e-05
2.6689e-05
2.93199e-05
3.28618e-05
3.75635e-05
4.33282e-05
4.71238e-05
4.70156e-05
4.30035e-05
3.30335e-05
2.08055e-05
1.88257e-05
1.87876e-05
1.89986e-05
1.94922e-05
2.0153e-05
2.0944e-05
2.18855e-05
2.28797e-05
2.3375e-05
2.33613e-05
2.31635e-05
2.25743e-05
2.14525e-05
2.0193e-05
1.9637e-05
1.95873e-05
1.95682e-05
1.95074e-05
1.94844e-05
1.95678e-05
1.98706e-05
2.04762e-05
2.1449e-05
2.2755e-05
2.43085e-05
2.59377e-05
2.73225e-05
3.00837e-05
1.81402e-05
1.81402e-05
1.81402e-05
1.81402e-05
1.81402e-05
1.81402e-05
1.81402e-05
1.81402e-05
1.81402e-05
1.81402e-05
1.81402e-05
1.81402e-05
1.81402e-05
1.81402e-05
1.81402e-05
1.81402e-05
1.81402e-05
1.81402e-05
1.81402e-05
1.81402e-05
1.81402e-05
1.81402e-05
1.81402e-05
1.81402e-05
1.81402e-05
1.81404e-05
1.81408e-05
1.81415e-05
1.81417e-05
1.81409e-05
1.81405e-05
1.81403e-05
1.81403e-05
1.81406e-05
1.81416e-05
1.81455e-05
1.81593e-05
1.81999e-05
1.82971e-05
1.84965e-05
1.87967e-05
1.90957e-05
1.92296e-05
1.93615e-05
1.99662e-05
2.09589e-05
2.06457e-05
1.9665e-05
1.89547e-05
1.85423e-05
1.83356e-05
1.82636e-05
1.8323e-05
1.86981e-05
1.96155e-05
2.10586e-05
2.29531e-05
2.50864e-05
2.71928e-05
2.90778e-05
3.06907e-05
3.23348e-05
3.45153e-05
3.75565e-05
4.12997e-05
4.56119e-05
5.03643e-05
5.62979e-05
5.72272e-05
5.49114e-05
4.48452e-05
2.92337e-05
2.00641e-05
1.91957e-05
1.93026e-05
1.97515e-05
2.04847e-05
2.14315e-05
2.25925e-05
2.39523e-05
2.49512e-05
2.50487e-05
2.4917e-05
2.44524e-05
2.33989e-05
2.18254e-05
2.0715e-05
2.04589e-05
2.03943e-05
2.03119e-05
2.03127e-05
2.04867e-05
2.10793e-05
2.22259e-05
2.38993e-05
2.59137e-05
2.80823e-05
3.02938e-05
3.21882e-05
3.60578e-05
1.81402e-05
1.81402e-05
1.81402e-05
1.81402e-05
1.81402e-05
1.81402e-05
1.81402e-05
1.81402e-05
1.81402e-05
1.81402e-05
1.81402e-05
1.81402e-05
1.81403e-05
1.81405e-05
1.81406e-05
1.81404e-05
1.81403e-05
1.81402e-05
1.81402e-05
1.81402e-05
1.81402e-05
1.81402e-05
1.81403e-05
1.81405e-05
1.81412e-05
1.81444e-05
1.81546e-05
1.81737e-05
1.81816e-05
1.81615e-05
1.81502e-05
1.81447e-05
1.81424e-05
1.81425e-05
1.8146e-05
1.81594e-05
1.82076e-05
1.83597e-05
1.87531e-05
1.97492e-05
2.17389e-05
2.46293e-05
2.66222e-05
2.75264e-05
3.01517e-05
3.64246e-05
3.88008e-05
3.63042e-05
3.14103e-05
2.4926e-05
2.09027e-05
1.86983e-05
1.86551e-05
1.93259e-05
2.09244e-05
2.32219e-05
2.59355e-05
2.88435e-05
3.17341e-05
3.44529e-05
3.68865e-05
3.92101e-05
4.19267e-05
4.52044e-05
4.85243e-05
5.1685e-05
5.75796e-05
6.32821e-05
6.40088e-05
6.30665e-05
5.67543e-05
4.10295e-05
2.51863e-05
2.01949e-05
1.98881e-05
2.01716e-05
2.09192e-05
2.20439e-05
2.34853e-05
2.52222e-05
2.68765e-05
2.73656e-05
2.72565e-05
2.68175e-05
2.57237e-05
2.38126e-05
2.20483e-05
2.13988e-05
2.12151e-05
2.10973e-05
2.11108e-05
2.1365e-05
2.2173e-05
2.36924e-05
2.58194e-05
2.8335e-05
3.10137e-05
3.3806e-05
3.63604e-05
4.12906e-05
1.81402e-05
1.81402e-05
1.81402e-05
1.81402e-05
1.81402e-05
1.81402e-05
1.81402e-05
1.81402e-05
1.81402e-05
1.81402e-05
1.81403e-05
1.81408e-05
1.81429e-05
1.8149e-05
1.81544e-05
1.81492e-05
1.81444e-05
1.81421e-05
1.8141e-05
1.81406e-05
1.81406e-05
1.81411e-05
1.81424e-05
1.81464e-05
1.81596e-05
1.82045e-05
1.83401e-05
1.86543e-05
1.89629e-05
1.86261e-05
1.83799e-05
1.82492e-05
1.8187e-05
1.81627e-05
1.81643e-05
1.82014e-05
1.83456e-05
1.88038e-05
1.99885e-05
2.23608e-05
2.62819e-05
3.14954e-05
3.6369e-05
3.96115e-05
4.33084e-05
4.76889e-05
5.47017e-05
5.79463e-05
5.47683e-05
4.36078e-05
2.81271e-05
1.96184e-05
1.9182e-05
2.00588e-05
2.2183e-05
2.50591e-05
2.82616e-05
3.1631e-05
3.50757e-05
3.84568e-05
4.17114e-05
4.48468e-05
4.81247e-05
5.14022e-05
5.40446e-05
5.90872e-05
6.43215e-05
6.63786e-05
6.63172e-05
6.5887e-05
6.41303e-05
5.49361e-05
3.86442e-05
2.38108e-05
2.09031e-05
2.10037e-05
2.16441e-05
2.28395e-05
2.44499e-05
2.64017e-05
2.8573e-05
3.00842e-05
3.02344e-05
3.00238e-05
2.92087e-05
2.72411e-05
2.45435e-05
2.28193e-05
2.21521e-05
2.18782e-05
2.18893e-05
2.22112e-05
2.32509e-05
2.51523e-05
2.77268e-05
3.06797e-05
3.37873e-05
3.70237e-05
4.00703e-05
4.56619e-05
1.81402e-05
1.81402e-05
1.81402e-05
1.81402e-05
1.81402e-05
1.81403e-05
1.81402e-05
1.81402e-05
1.81403e-05
1.81405e-05
1.81422e-05
1.81513e-05
1.81879e-05
1.8294e-05
1.84397e-05
1.83643e-05
1.82504e-05
1.81929e-05
1.8165e-05
1.81539e-05
1.81538e-05
1.8163e-05
1.81861e-05
1.82381e-05
1.83599e-05
1.86004e-05
1.92576e-05
2.16372e-05
2.75909e-05
2.62401e-05
2.26339e-05
2.03044e-05
1.91491e-05
1.8496e-05
1.8244e-05
1.83135e-05
1.86665e-05
1.97008e-05
2.1787e-05
2.52562e-05
3.01742e-05
3.63311e-05
4.23897e-05
4.71054e-05
5.11237e-05
5.63892e-05
6.27885e-05
6.59443e-05
6.53717e-05
5.92393e-05
4.01883e-05
2.24058e-05
2.00315e-05
2.08932e-05
2.33361e-05
2.66578e-05
3.0282e-05
3.40807e-05
3.8013e-05
4.20273e-05
4.59623e-05
4.97042e-05
5.30887e-05
5.59928e-05
6.07429e-05
6.55009e-05
6.71738e-05
6.70976e-05
6.66578e-05
6.63152e-05
6.57556e-05
6.34004e-05
5.12813e-05
3.21336e-05
2.2834e-05
2.23959e-05
2.28562e-05
2.40209e-05
2.56985e-05
2.77596e-05
3.01385e-05
3.24295e-05
3.37246e-05
3.39514e-05
3.37811e-05
3.27775e-05
3.01552e-05
2.6498e-05
2.3865e-05
2.27348e-05
2.26747e-05
2.30413e-05
2.42829e-05
2.64997e-05
2.94398e-05
3.27738e-05
3.63375e-05
4.00059e-05
4.37236e-05
4.96161e-05
1.81404e-05
1.81404e-05
1.81405e-05
1.81414e-05
1.81435e-05
1.8145e-05
1.81438e-05
1.81421e-05
1.8142e-05
1.81456e-05
1.81653e-05
1.82342e-05
1.85018e-05
1.94488e-05
2.22359e-05
2.22561e-05
2.03279e-05
1.92232e-05
1.86547e-05
1.84181e-05
1.83531e-05
1.84268e-05
1.85961e-05
1.88864e-05
1.93227e-05
2.00524e-05
2.18697e-05
2.75343e-05
3.91117e-05
4.61445e-05
4.32609e-05
3.48479e-05
2.51563e-05
1.96578e-05
1.84599e-05
1.85492e-05
1.91941e-05
2.08714e-05
2.38308e-05
2.80995e-05
3.369e-05
4.04415e-05
4.69955e-05
5.17547e-05
5.59765e-05
6.31099e-05
6.66345e-05
6.75246e-05
6.72239e-05
6.52552e-05
5.15962e-05
2.87083e-05
2.13115e-05
2.18847e-05
2.43891e-05
2.80789e-05
3.21104e-05
3.63376e-05
4.07193e-05
4.52878e-05
4.98155e-05
5.37157e-05
5.67411e-05
6.1072e-05
6.6196e-05
6.79615e-05
6.76353e-05
6.60867e-05
6.30488e-05
6.31078e-05
6.35697e-05
6.31318e-05
5.96543e-05
3.93374e-05
2.5162e-05
2.40924e-05
2.4507e-05
2.57179e-05
2.75498e-05
2.97985e-05
3.23845e-05
3.50124e-05
3.70992e-05
3.86669e-05
3.93191e-05
3.90879e-05
3.78823e-05
3.43713e-05
2.84585e-05
2.41324e-05
2.34993e-05
2.38853e-05
2.52925e-05
2.78179e-05
3.11179e-05
3.48465e-05
3.878e-05
4.2885e-05
4.72794e-05
5.27995e-05
1.81616e-05
1.81684e-05
1.81798e-05
1.82311e-05
1.83152e-05
1.83768e-05
1.83293e-05
1.82366e-05
1.81992e-05
1.82103e-05
1.82945e-05
1.85226e-05
1.95349e-05
2.2779e-05
3.13434e-05
4.04218e-05
3.67382e-05
3.11455e-05
2.43413e-05
2.08484e-05
1.94599e-05
1.96158e-05
2.03648e-05
2.16766e-05
2.30776e-05
2.4605e-05
2.77465e-05
3.48465e-05
4.50313e-05
5.76314e-05
6.04401e-05
5.46932e-05
3.89039e-05
2.35598e-05
1.90377e-05
1.90047e-05
1.99574e-05
2.2335e-05
2.60732e-05
3.10283e-05
3.72636e-05
4.46874e-05
5.12609e-05
5.53882e-05
6.2653e-05
6.70706e-05
6.76786e-05
6.72909e-05
6.70237e-05
6.59006e-05
6.01642e-05
3.7651e-05
2.31832e-05
2.31206e-05
2.546e-05
2.9488e-05
3.39613e-05
3.85881e-05
4.34438e-05
4.85107e-05
5.33052e-05
5.68141e-05
6.05051e-05
6.58697e-05
6.87244e-05
6.8569e-05
6.69973e-05
6.12759e-05
5.49663e-05
5.53279e-05
5.72828e-05
5.75706e-05
5.47203e-05
3.80262e-05
2.67217e-05
2.60728e-05
2.66819e-05
2.82305e-05
3.03819e-05
3.29074e-05
3.57618e-05
3.8558e-05
4.09527e-05
4.30742e-05
4.45926e-05
4.46516e-05
4.42137e-05
4.22647e-05
3.63707e-05
2.76015e-05
2.45213e-05
2.48014e-05
2.63001e-05
2.91084e-05
3.2764e-05
3.68878e-05
4.12411e-05
4.5728e-05
5.06994e-05
5.49873e-05
1.92052e-05
1.99527e-05
2.01047e-05
2.11808e-05
2.33867e-05
2.64447e-05
2.73416e-05
2.38653e-05
2.10052e-05
1.96946e-05
1.92253e-05
1.94859e-05
2.12993e-05
2.6614e-05
3.77745e-05
4.96993e-05
5.6678e-05
5.29878e-05
4.1973e-05
2.88719e-05
2.23891e-05
2.27976e-05
2.51056e-05
2.89223e-05
3.20801e-05
3.42047e-05
3.7281e-05
4.21545e-05
5.34884e-05
6.44539e-05
6.59359e-05
6.45124e-05
5.48823e-05
3.51176e-05
2.07215e-05
1.98505e-05
2.10452e-05
2.41711e-05
2.86667e-05
3.4298e-05
4.12053e-05
4.91553e-05
5.48356e-05
6.2005e-05
6.74972e-05
6.79185e-05
6.67817e-05
6.26289e-05
6.24447e-05
6.34308e-05
6.17426e-05
4.50391e-05
2.5408e-05
2.44448e-05
2.66413e-05
3.09598e-05
3.58952e-05
4.09535e-05
4.62633e-05
5.17798e-05
5.62485e-05
5.99273e-05
6.49349e-05
6.89961e-05
6.96057e-05
6.85223e-05
6.41122e-05
5.4054e-05
4.80103e-05
4.73295e-05
4.75911e-05
4.73855e-05
4.53018e-05
3.40788e-05
2.832e-05
2.84056e-05
2.96467e-05
3.17847e-05
3.42911e-05
3.698e-05
3.97873e-05
4.24524e-05
4.46619e-05
4.64961e-05
4.77554e-05
4.78876e-05
4.77233e-05
4.68826e-05
4.30122e-05
3.28269e-05
2.60111e-05
2.59033e-05
2.73368e-05
3.03868e-05
3.44274e-05
3.89188e-05
4.36877e-05
4.84892e-05
5.36505e-05
5.67022e-05
6.74419e-05
6.09133e-05
5.80043e-05
5.92264e-05
6.22976e-05
6.44639e-05
6.48215e-05
6.2324e-05
5.08996e-05
3.54243e-05
2.28753e-05
2.23339e-05
2.47648e-05
3.20779e-05
4.32988e-05
5.72669e-05
6.3562e-05
6.31573e-05
5.88165e-05
4.50898e-05
3.0016e-05
2.99073e-05
3.36928e-05
3.93197e-05
4.25176e-05
4.42385e-05
4.75122e-05
5.52604e-05
6.57429e-05
6.68942e-05
6.59625e-05
6.53804e-05
6.27922e-05
4.51579e-05
2.38092e-05
2.11381e-05
2.25263e-05
2.63076e-05
3.15515e-05
3.78894e-05
4.54695e-05
5.29484e-05
6.13638e-05
6.7834e-05
6.87579e-05
6.70158e-05
6.02451e-05
5.23169e-05
5.29383e-05
5.71138e-05
5.87757e-05
4.86781e-05
2.77054e-05
2.57923e-05
2.80135e-05
3.26339e-05
3.80068e-05
4.35485e-05
4.93339e-05
5.47708e-05
5.89086e-05
6.38618e-05
6.85432e-05
7.0398e-05
7.00512e-05
6.74993e-05
6.0217e-05
4.97971e-05
4.15978e-05
3.86364e-05
3.76898e-05
3.57927e-05
3.28993e-05
3.01757e-05
2.99839e-05
3.12556e-05
3.37063e-05
3.63597e-05
3.88288e-05
4.11555e-05
4.32966e-05
4.51446e-05
4.66666e-05
4.78396e-05
4.86728e-05
4.90147e-05
4.89852e-05
4.85089e-05
4.64546e-05
3.81845e-05
2.82595e-05
2.71474e-05
2.84616e-05
3.16917e-05
3.61318e-05
4.10178e-05
4.61635e-05
5.11546e-05
5.60155e-05
5.81194e-05
7.10467e-05
7.01266e-05
6.97643e-05
6.9677e-05
6.98203e-05
6.99724e-05
7.01817e-05
6.93304e-05
6.41004e-05
4.97625e-05
3.17853e-05
2.79855e-05
3.09993e-05
3.97341e-05
5.23965e-05
6.44292e-05
6.41001e-05
5.8413e-05
5.27978e-05
4.35861e-05
3.53676e-05
3.73223e-05
4.3079e-05
4.91728e-05
5.39784e-05
5.695e-05
6.15086e-05
6.81663e-05
6.92927e-05
6.50386e-05
5.67918e-05
5.87767e-05
6.0195e-05
5.21941e-05
2.81366e-05
2.29503e-05
2.44602e-05
2.88029e-05
3.47793e-05
4.18398e-05
4.97054e-05
5.77823e-05
6.71612e-05
6.97715e-05
6.85929e-05
6.15322e-05
4.87437e-05
4.5913e-05
4.72769e-05
5.21533e-05
5.51492e-05
4.71396e-05
2.88652e-05
2.71527e-05
2.95731e-05
3.45769e-05
4.03856e-05
4.64274e-05
5.25796e-05
5.7365e-05
6.23797e-05
6.76523e-05
7.04779e-05
7.10524e-05
7.02705e-05
6.61725e-05
5.84463e-05
4.60945e-05
3.58762e-05
3.11397e-05
2.95415e-05
2.92491e-05
2.93944e-05
3.00909e-05
3.23256e-05
3.55231e-05
3.86354e-05
4.09649e-05
4.25792e-05
4.37779e-05
4.4843e-05
4.59149e-05
4.70341e-05
4.8032e-05
4.87948e-05
4.93294e-05
4.93801e-05
4.90782e-05
4.77456e-05
4.20537e-05
3.09783e-05
2.8514e-05
2.96966e-05
3.30525e-05
3.78533e-05
4.31488e-05
4.86216e-05
5.35594e-05
5.78655e-05
5.94103e-05
7.09824e-05
7.11128e-05
7.12046e-05
7.12301e-05
7.12509e-05
7.12821e-05
7.15089e-05
6.9788e-05
6.15293e-05
4.81194e-05
3.63148e-05
3.55121e-05
3.94662e-05
4.85727e-05
6.43241e-05
6.74251e-05
6.22645e-05
4.6959e-05
4.13199e-05
3.89138e-05
3.95267e-05
4.41877e-05
5.14296e-05
5.97741e-05
6.53599e-05
6.80969e-05
6.88907e-05
7.0702e-05
6.97564e-05
5.72188e-05
4.73122e-05
4.99374e-05
5.60642e-05
5.1993e-05
3.04972e-05
2.49339e-05
2.6717e-05
3.17034e-05
3.8435e-05
4.618e-05
5.32264e-05
6.36459e-05
6.99757e-05
7.01462e-05
6.71561e-05
5.1997e-05
4.27898e-05
4.1527e-05
4.30373e-05
4.83316e-05
5.13998e-05
4.40426e-05
2.94353e-05
2.8517e-05
3.13451e-05
3.68153e-05
4.30971e-05
4.96229e-05
5.54761e-05
6.02981e-05
6.61729e-05
6.99265e-05
7.14096e-05
7.14471e-05
7.02048e-05
6.54723e-05
5.81182e-05
4.44974e-05
3.33337e-05
2.94504e-05
2.89926e-05
2.92515e-05
2.99808e-05
3.23348e-05
3.64758e-05
4.03277e-05
4.27334e-05
4.34507e-05
4.37903e-05
4.41831e-05
4.47802e-05
4.5699e-05
4.70551e-05
4.8199e-05
4.88194e-05
4.92914e-05
4.9436e-05
4.92892e-05
4.83538e-05
4.44307e-05
3.36881e-05
2.99907e-05
3.10293e-05
3.44929e-05
3.96411e-05
4.53126e-05
5.10428e-05
5.56233e-05
5.93079e-05
6.09213e-05
7.09202e-05
7.09379e-05
7.09691e-05
7.10127e-05
7.10628e-05
7.11754e-05
7.13981e-05
7.02667e-05
6.50056e-05
5.10107e-05
4.35322e-05
4.32494e-05
4.88873e-05
6.20755e-05
6.95164e-05
6.92278e-05
6.10321e-05
4.79871e-05
4.26259e-05
4.22238e-05
4.5124e-05
5.20294e-05
6.16457e-05
6.82636e-05
6.87607e-05
6.87832e-05
6.98491e-05
7.13021e-05
6.84982e-05
4.9203e-05
4.04642e-05
4.36554e-05
5.06386e-05
4.82785e-05
3.08235e-05
2.68546e-05
2.93056e-05
3.51751e-05
4.26216e-05
5.0393e-05
5.81807e-05
6.83382e-05
7.10537e-05
7.00724e-05
6.33533e-05
4.64514e-05
3.86405e-05
3.85113e-05
4.02057e-05
4.53081e-05
4.77204e-05
4.07478e-05
2.98606e-05
2.98815e-05
3.33581e-05
3.93359e-05
4.61267e-05
5.29102e-05
5.80683e-05
6.40021e-05
6.92301e-05
7.1009e-05
7.15551e-05
7.1654e-05
7.00811e-05
6.5365e-05
5.81034e-05
4.46765e-05
3.43969e-05
3.10854e-05
3.043e-05
3.06727e-05
3.22179e-05
3.60818e-05
4.0613e-05
4.29179e-05
4.32221e-05
4.33102e-05
4.34602e-05
4.38666e-05
4.48885e-05
4.66793e-05
4.84605e-05
4.87316e-05
4.80637e-05
4.75856e-05
4.79288e-05
4.85586e-05
4.81138e-05
4.57372e-05
3.62743e-05
3.15357e-05
3.24421e-05
3.59958e-05
4.14911e-05
4.75013e-05
5.33527e-05
5.74693e-05
6.08185e-05
6.25847e-05
7.0917e-05
7.09167e-05
7.09182e-05
7.09213e-05
7.093e-05
7.09536e-05
7.10957e-05
7.10197e-05
6.92058e-05
6.28086e-05
5.40957e-05
5.58699e-05
6.29222e-05
6.90461e-05
7.10941e-05
7.01685e-05
6.44812e-05
5.19896e-05
4.66704e-05
4.75433e-05
5.33648e-05
6.23432e-05
6.8693e-05
6.86288e-05
6.73102e-05
6.72008e-05
6.80889e-05
7.04625e-05
6.6681e-05
4.51825e-05
3.27143e-05
3.58172e-05
4.29784e-05
4.10466e-05
2.9588e-05
2.86722e-05
3.24418e-05
3.93921e-05
4.7235e-05
5.38617e-05
6.40029e-05
7.01516e-05
7.14829e-05
6.98642e-05
5.93285e-05
4.20066e-05
3.61097e-05
3.65345e-05
3.86321e-05
4.35745e-05
4.46844e-05
3.77143e-05
3.04039e-05
3.13399e-05
3.56651e-05
4.22187e-05
4.94621e-05
5.58042e-05
6.13951e-05
6.76639e-05
7.01969e-05
7.0935e-05
7.12762e-05
7.16767e-05
7.01374e-05
6.63586e-05
6.02595e-05
5.00657e-05
3.92552e-05
3.43666e-05
3.34943e-05
3.38478e-05
3.5988e-05
4.01516e-05
4.28218e-05
4.30175e-05
4.30154e-05
4.31904e-05
4.37101e-05
4.48638e-05
4.71495e-05
4.90632e-05
4.89637e-05
4.76393e-05
4.47967e-05
4.39615e-05
4.43976e-05
4.59631e-05
4.69436e-05
4.54862e-05
3.85502e-05
3.31714e-05
3.39424e-05
3.75658e-05
4.34117e-05
4.97361e-05
5.54188e-05
5.89678e-05
6.24033e-05
6.44806e-05
7.09171e-05
7.09134e-05
7.09058e-05
7.08924e-05
7.08699e-05
7.08347e-05
7.08154e-05
7.09508e-05
7.04488e-05
6.89486e-05
6.73989e-05
6.83713e-05
6.88655e-05
7.02622e-05
7.09376e-05
7.07655e-05
6.87896e-05
6.20831e-05
5.75039e-05
5.87836e-05
6.47092e-05
6.88777e-05
6.82089e-05
6.53665e-05
6.33727e-05
6.32969e-05
6.52102e-05
6.94242e-05
6.58365e-05
4.32547e-05
2.85433e-05
2.85683e-05
3.15139e-05
3.07847e-05
2.89095e-05
3.09126e-05
3.6796e-05
4.45046e-05
5.12044e-05
6.0166e-05
6.88417e-05
7.09992e-05
7.16651e-05
6.94897e-05
5.70902e-05
3.8762e-05
3.44944e-05
3.54e-05
3.83048e-05
4.25978e-05
4.21792e-05
3.48418e-05
3.11602e-05
3.3013e-05
3.83232e-05
4.5461e-05
5.28128e-05
5.85139e-05
6.53065e-05
6.97485e-05
7.01315e-05
7.03169e-05
7.09819e-05
7.16906e-05
7.05127e-05
6.77659e-05
6.30591e-05
5.46229e-05
4.48187e-05
3.90157e-05
3.77199e-05
3.80848e-05
4.02108e-05
4.27299e-05
4.30181e-05
4.30347e-05
4.34841e-05
4.43278e-05
4.57713e-05
4.85411e-05
5.00825e-05
4.968e-05
4.75324e-05
4.39266e-05
4.17368e-05
4.15817e-05
4.19068e-05
4.32569e-05
4.53295e-05
4.47696e-05
3.99558e-05
3.48273e-05
3.55134e-05
3.92553e-05
4.54386e-05
5.20399e-05
5.73611e-05
6.0544e-05
6.42082e-05
6.64246e-05
7.09134e-05
7.08976e-05
7.0872e-05
7.08294e-05
7.0759e-05
7.06438e-05
7.05047e-05
7.04608e-05
7.04856e-05
7.03029e-05
6.94608e-05
6.93538e-05
6.97608e-05
6.96762e-05
6.97347e-05
7.02164e-05
6.98918e-05
6.89384e-05
6.7986e-05
6.84725e-05
6.87512e-05
6.78438e-05
6.39531e-05
5.99552e-05
5.82152e-05
5.84221e-05
6.16386e-05
6.7873e-05
6.61712e-05
4.33682e-05
2.91229e-05
2.71145e-05
2.75756e-05
2.84584e-05
3.02347e-05
3.5104e-05
4.23691e-05
4.92963e-05
5.73974e-05
6.71846e-05
6.93417e-05
7.05052e-05
7.13804e-05
6.93058e-05
5.67131e-05
3.7555e-05
3.31443e-05
3.45345e-05
3.83794e-05
4.13175e-05
3.95043e-05
3.28326e-05
3.21849e-05
3.50979e-05
4.14138e-05
4.90648e-05
5.57254e-05
6.24066e-05
6.88501e-05
6.94437e-05
6.89933e-05
6.95269e-05
7.08643e-05
7.16732e-05
7.09748e-05
6.92485e-05
6.56316e-05
5.8794e-05
5.07026e-05
4.4779e-05
4.27513e-05
4.26771e-05
4.33163e-05
4.36296e-05
4.37538e-05
4.42905e-05
4.56145e-05
4.80174e-05
5.10934e-05
5.20249e-05
5.12862e-05
4.77362e-05
4.33697e-05
4.12894e-05
4.07869e-05
4.08227e-05
4.10601e-05
4.19081e-05
4.39432e-05
4.39544e-05
4.05869e-05
3.6334e-05
3.70957e-05
4.10989e-05
4.76209e-05
5.4249e-05
5.89654e-05
6.21965e-05
6.61471e-05
6.83416e-05
7.08895e-05
7.08017e-05
7.06738e-05
7.05111e-05
7.03043e-05
7.00277e-05
6.97587e-05
6.96491e-05
6.95699e-05
6.95601e-05
6.93557e-05
6.88532e-05
6.83915e-05
6.7829e-05
6.78109e-05
6.82485e-05
6.89657e-05
6.89093e-05
6.87951e-05
6.83162e-05
6.64678e-05
6.29393e-05
5.74209e-05
5.35885e-05
5.22462e-05
5.28309e-05
5.72482e-05
6.52548e-05
6.87031e-05
4.70201e-05
3.38189e-05
2.88471e-05
2.88369e-05
3.02233e-05
3.44843e-05
4.11676e-05
4.77922e-05
5.58297e-05
6.55006e-05
6.83689e-05
6.82253e-05
6.92689e-05
7.10628e-05
6.95985e-05
5.78427e-05
3.78048e-05
3.18542e-05
3.34182e-05
3.77566e-05
3.94332e-05
3.65628e-05
3.23704e-05
3.33984e-05
3.77004e-05
4.49774e-05
5.26492e-05
5.88671e-05
6.66534e-05
6.94123e-05
6.77696e-05
6.7835e-05
6.90584e-05
7.07973e-05
7.15314e-05
7.13817e-05
7.04007e-05
6.77389e-05
6.25161e-05
5.55262e-05
5.03372e-05
4.73965e-05
4.59773e-05
4.51259e-05
4.51294e-05
4.58109e-05
4.77989e-05
5.08788e-05
5.38867e-05
5.49541e-05
5.39463e-05
4.88388e-05
4.3415e-05
4.11297e-05
4.06038e-05
4.05722e-05
4.06199e-05
4.08026e-05
4.14186e-05
4.30794e-05
4.32259e-05
4.07135e-05
3.76161e-05
3.86806e-05
4.31003e-05
4.99826e-05
5.64126e-05
6.06777e-05
6.40914e-05
6.81148e-05
6.98847e-05
7.06403e-05
7.0103e-05
6.94462e-05
6.88302e-05
6.8325e-05
6.7873e-05
6.74995e-05
6.73464e-05
6.71411e-05
6.70443e-05
6.66791e-05
6.58212e-05
6.52939e-05
6.4826e-05
6.49487e-05
6.53342e-05
6.58848e-05
6.61134e-05
6.57796e-05
6.41588e-05
6.05883e-05
5.59059e-05
5.02994e-05
4.69233e-05
4.61242e-05
4.71018e-05
5.20745e-05
6.05084e-05
6.83301e-05
5.50969e-05
4.13812e-05
3.41454e-05
3.30621e-05
3.54437e-05
4.12133e-05
4.68411e-05
5.50133e-05
6.49925e-05
6.80692e-05
6.56007e-05
6.62115e-05
6.82543e-05
7.06944e-05
6.9951e-05
5.91231e-05
3.87834e-05
3.10384e-05
3.18006e-05
3.55911e-05
3.65889e-05
3.37818e-05
3.27307e-05
3.50325e-05
4.10889e-05
4.89273e-05
5.56639e-05
6.34371e-05
6.92157e-05
6.73602e-05
6.61114e-05
6.69786e-05
6.89245e-05
7.04526e-05
7.10529e-05
7.13808e-05
7.11328e-05
6.93667e-05
6.52547e-05
5.91763e-05
5.43789e-05
5.08222e-05
4.82291e-05
4.76473e-05
4.81874e-05
5.00601e-05
5.30003e-05
5.64988e-05
5.78505e-05
5.72489e-05
5.16344e-05
4.44725e-05
4.13466e-05
4.06406e-05
4.05802e-05
4.06025e-05
4.0651e-05
4.08114e-05
4.1376e-05
4.26459e-05
4.26452e-05
4.05771e-05
3.87299e-05
4.0299e-05
4.528e-05
5.25278e-05
5.82473e-05
6.24945e-05
6.61601e-05
6.97519e-05
7.08475e-05
6.71998e-05
6.34094e-05
6.21618e-05
6.20301e-05
6.20755e-05
6.19825e-05
6.17598e-05
6.16028e-05
6.11751e-05
6.0923e-05
6.05119e-05
5.98941e-05
5.99289e-05
5.99705e-05
6.03874e-05
6.05753e-05
6.06558e-05
6.02874e-05
5.92377e-05
5.66312e-05
5.25691e-05
4.84514e-05
4.32712e-05
4.0604e-05
4.04867e-05
4.18224e-05
4.64889e-05
5.39614e-05
6.52875e-05
6.53679e-05
4.85082e-05
4.18301e-05
4.08022e-05
4.30512e-05
4.78162e-05
5.57474e-05
6.54908e-05
6.7297e-05
6.30725e-05
6.28759e-05
6.45279e-05
6.70473e-05
6.96822e-05
7.02436e-05
6.13226e-05
4.14752e-05
3.10304e-05
3.05803e-05
3.19044e-05
3.28553e-05
3.25531e-05
3.37076e-05
3.7794e-05
4.51072e-05
5.26526e-05
5.97095e-05
6.804e-05
6.76304e-05
6.45789e-05
6.50046e-05
6.67911e-05
6.86419e-05
6.96029e-05
7.01466e-05
7.07958e-05
7.14173e-05
7.0447e-05
6.74403e-05
6.25487e-05
5.70031e-05
5.3403e-05
5.14564e-05
5.12847e-05
5.22838e-05
5.48161e-05
5.83479e-05
6.00639e-05
5.99046e-05
5.60701e-05
4.73717e-05
4.22691e-05
4.0928e-05
4.09413e-05
4.10093e-05
4.09718e-05
4.09511e-05
4.10657e-05
4.15455e-05
4.23245e-05
4.21635e-05
4.036e-05
3.97637e-05
4.19736e-05
4.77434e-05
5.49248e-05
6.00693e-05
6.45535e-05
6.82457e-05
7.07516e-05
7.10667e-05
2.86894e-05
3.6294e-05
4.13639e-05
4.48798e-05
4.72134e-05
4.86303e-05
4.90825e-05
4.90529e-05
4.85178e-05
4.89833e-05
4.96026e-05
5.02954e-05
5.12536e-05
5.18104e-05
5.18671e-05
5.14557e-05
5.08407e-05
4.99045e-05
4.87196e-05
4.64497e-05
4.34514e-05
4.0349e-05
3.64915e-05
3.54877e-05
3.60805e-05
3.76741e-05
4.11625e-05
4.66219e-05
5.66191e-05
6.73655e-05
6.23432e-05
5.11425e-05
4.93847e-05
5.22636e-05
5.93566e-05
6.75759e-05
6.54109e-05
5.95414e-05
5.90414e-05
6.04824e-05
6.25218e-05
6.45777e-05
6.76614e-05
7.01828e-05
6.42488e-05
4.52354e-05
3.26739e-05
3.07503e-05
3.10057e-05
3.17981e-05
3.28628e-05
3.58137e-05
4.19972e-05
4.96586e-05
5.59268e-05
6.49093e-05
6.84287e-05
6.37697e-05
6.32401e-05
6.46775e-05
6.66991e-05
6.77048e-05
6.80386e-05
6.84836e-05
6.96465e-05
7.11115e-05
7.1145e-05
6.93533e-05
6.60387e-05
6.15978e-05
5.75468e-05
5.54208e-05
5.56589e-05
5.7658e-05
6.05875e-05
6.20572e-05
6.20631e-05
6.00627e-05
5.31306e-05
4.50016e-05
4.19061e-05
4.18309e-05
4.18775e-05
4.17672e-05
4.14309e-05
4.1195e-05
4.12123e-05
4.14788e-05
4.18253e-05
4.15474e-05
4.03278e-05
4.08096e-05
4.40317e-05
5.05439e-05
5.72744e-05
6.20974e-05
6.67988e-05
6.99304e-05
7.09398e-05
7.00797e-05
1.89702e-05
2.10723e-05
2.34763e-05
2.58547e-05
2.79099e-05
2.93168e-05
3.00618e-05
3.08075e-05
3.18096e-05
3.34516e-05
3.49972e-05
3.63999e-05
3.72624e-05
3.75443e-05
3.72692e-05
3.68361e-05
3.66213e-05
3.65831e-05
3.64342e-05
3.5446e-05
3.37935e-05
3.24013e-05
3.172e-05
3.23417e-05
3.36844e-05
3.50989e-05
3.70043e-05
3.9821e-05
4.50534e-05
5.59617e-05
6.60768e-05
6.68067e-05
6.47984e-05
6.72879e-05
6.68253e-05
5.99455e-05
5.43758e-05
5.40487e-05
5.56057e-05
5.7168e-05
5.85667e-05
6.05403e-05
6.42894e-05
6.90917e-05
6.7866e-05
5.04092e-05
3.76465e-05
3.27004e-05
3.21916e-05
3.29433e-05
3.5097e-05
4.02176e-05
4.7269e-05
5.35756e-05
6.19309e-05
6.88042e-05
6.39069e-05
6.1654e-05
6.28265e-05
6.47143e-05
6.57778e-05
6.57223e-05
6.56532e-05
6.61693e-05
6.79692e-05
7.04071e-05
7.13859e-05
7.06493e-05
6.90267e-05
6.67361e-05
6.44806e-05
6.30148e-05
6.31204e-05
6.39265e-05
6.45445e-05
6.4342e-05
6.2815e-05
5.89558e-05
5.1311e-05
4.51349e-05
4.37918e-05
4.35579e-05
4.34029e-05
4.28697e-05
4.2007e-05
4.14302e-05
4.12232e-05
4.11796e-05
4.11523e-05
4.08517e-05
4.06611e-05
4.21337e-05
4.66788e-05
5.36549e-05
5.94828e-05
6.45242e-05
6.90576e-05
7.0764e-05
6.96959e-05
6.75584e-05
1.81929e-05
1.84216e-05
1.87606e-05
1.91518e-05
1.95998e-05
2.00656e-05
2.05109e-05
2.10163e-05
2.16428e-05
2.24166e-05
2.3116e-05
2.36992e-05
2.40975e-05
2.43844e-05
2.45738e-05
2.49028e-05
2.54082e-05
2.60282e-05
2.6602e-05
2.70757e-05
2.76589e-05
2.84771e-05
2.98907e-05
3.16096e-05
3.30662e-05
3.39539e-05
3.48485e-05
3.6076e-05
3.81186e-05
4.23787e-05
4.88011e-05
5.55763e-05
5.77993e-05
5.49991e-05
5.02347e-05
4.8078e-05
4.84772e-05
4.9825e-05
5.13864e-05
5.20008e-05
5.28477e-05
5.49056e-05
5.93186e-05
6.56979e-05
6.94129e-05
5.87347e-05
4.47715e-05
3.81837e-05
3.60418e-05
3.67682e-05
4.03468e-05
4.63515e-05
5.19991e-05
6.00792e-05
6.85891e-05
6.43526e-05
6.03299e-05
6.11926e-05
6.29105e-05
6.36717e-05
6.33598e-05
6.26648e-05
6.25447e-05
6.34627e-05
6.61335e-05
6.92288e-05
7.0813e-05
7.11404e-05
7.06391e-05
6.97804e-05
6.89047e-05
6.80684e-05
6.77802e-05
6.75398e-05
6.69781e-05
6.54744e-05
6.2719e-05
5.84553e-05
5.22537e-05
4.82181e-05
4.68661e-05
4.64348e-05
4.59613e-05
4.47374e-05
4.30107e-05
4.18628e-05
4.13791e-05
4.11225e-05
4.09616e-05
4.0919e-05
4.15136e-05
4.41486e-05
5.00948e-05
5.67012e-05
6.20924e-05
6.72543e-05
7.03953e-05
6.99347e-05
6.66236e-05
6.37332e-05
1.81435e-05
1.8161e-05
1.81933e-05
1.82411e-05
1.83064e-05
1.83956e-05
1.84938e-05
1.86148e-05
1.87698e-05
1.89678e-05
1.91754e-05
1.93762e-05
1.95656e-05
1.97616e-05
1.99938e-05
2.04064e-05
2.09931e-05
2.15821e-05
2.25713e-05
2.41662e-05
2.61487e-05
2.83774e-05
3.06153e-05
3.22337e-05
3.3099e-05
3.35688e-05
3.40553e-05
3.4735e-05
3.5588e-05
3.67025e-05
3.79982e-05
3.96512e-05
4.08728e-05
4.18134e-05
4.25494e-05
4.33061e-05
4.43283e-05
4.53024e-05
4.59097e-05
4.58303e-05
4.65575e-05
4.87901e-05
5.31587e-05
5.97521e-05
6.7477e-05
6.74333e-05
5.27664e-05
4.60152e-05
4.37296e-05
4.42564e-05
4.75147e-05
5.24035e-05
5.99698e-05
6.84643e-05
6.42328e-05
5.91949e-05
5.97558e-05
6.1163e-05
6.17389e-05
6.07718e-05
5.92285e-05
5.85326e-05
5.88404e-05
6.07499e-05
6.43447e-05
6.76481e-05
6.92267e-05
7.00617e-05
7.06112e-05
7.07917e-05
7.06249e-05
7.0351e-05
7.01479e-05
6.97173e-05
6.85195e-05
6.60356e-05
6.28893e-05
5.92387e-05
5.5233e-05
5.24651e-05
5.13303e-05
5.0825e-05
5.00146e-05
4.79315e-05
4.50258e-05
4.29117e-05
4.19329e-05
4.14811e-05
4.1335e-05
4.1516e-05
4.31564e-05
4.74233e-05
5.39484e-05
5.95707e-05
6.52538e-05
6.96437e-05
6.97468e-05
6.64312e-05
6.2105e-05
5.91719e-05
1.81404e-05
1.81416e-05
1.81444e-05
1.81495e-05
1.81574e-05
1.81697e-05
1.81859e-05
1.82103e-05
1.82445e-05
1.82891e-05
1.83424e-05
1.84049e-05
1.84853e-05
1.86106e-05
1.8811e-05
1.92137e-05
2.01926e-05
2.1692e-05
2.3658e-05
2.61478e-05
2.88855e-05
3.11549e-05
3.25072e-05
3.29099e-05
3.31618e-05
3.34664e-05
3.39337e-05
3.46163e-05
3.5475e-05
3.63019e-05
3.71636e-05
3.80816e-05
3.90103e-05
3.98596e-05
4.05755e-05
4.10732e-05
4.14112e-05
4.13483e-05
4.10622e-05
4.09204e-05
4.16339e-05
4.36252e-05
4.73509e-05
5.2726e-05
6.06998e-05
6.80937e-05
6.56415e-05