/*--------------------------------*- C++ -*----------------------------------*\
| =========                 |                                                 |
| \\      /  F ield         | OpenFOAM: The Open Source CFD Toolbox           |
|  \\    /   O peration     | Version:  2.3.0                                 |
|   \\  /    A nd           | Web:      www.OpenFOAM.org                      |
|    \\/     M anipulation  |                                                 |
\*---------------------------------------------------------------------------*/
FoamFile
{
    version     2.0;
    format      ascii;
    class       volVectorField;
    location    "0.03";
    object      U;
}
// * * * * * * * * * * * * * * * * * * * * * * * * * * * * * * * * * * * * * //

dimensions      [0 1 -1 0 0 0 0];

internalField   nonuniform List<vector> 
5000
(
(58.7186 0.263522 -0.169124)
(54.9693 0.295243 0.782273)
(50.5071 0.112116 1.36472)
(47.1359 -0.0507904 1.27582)
(46.5775 0.161313 1.0781)
(46.6515 0.3017 0.993914)
(47.1189 0.49663 0.838026)
(47.3804 0.682738 0.985731)
(47.45 0.343529 1.0433)
(47.5803 0.0626359 1.18655)
(47.9807 -0.165428 1.59471)
(49.0269 -0.288898 1.97048)
(50.19 -0.296229 2.09961)
(51.2525 -0.282814 1.96841)
(52.979 -0.201117 1.24738)
(53.2237 0.150671 0.697333)
(52.5266 0.133765 0.466955)
(51.0724 0.513677 0.0666324)
(48.4884 0.631678 -0.0332021)
(46.4052 0.0867711 0.274907)
(46.5867 -0.236185 0.400641)
(47.1347 -0.31568 0.561614)
(48.0356 -0.364078 0.807995)
(48.991 -0.314645 0.786954)
(49.5981 -0.200279 0.574549)
(49.9766 -0.199851 0.410632)
(50.6581 -0.276021 0.301161)
(52.0081 -0.362149 0.241822)
(54.7983 -0.64329 0.152263)
(56.7396 0.0481642 0.0351232)
(56.2875 0.158622 0.00349808)
(54.7354 0.377604 0.0903178)
(51.1008 0.671723 0.253489)
(45.1241 0.735962 0.0509586)
(40.8228 0.421768 -0.473035)
(40.323 0.00166121 -0.62293)
(40.6251 -0.051494 -0.710219)
(41.2189 -0.109664 -0.852024)
(42.2313 -0.14508 -1.08001)
(43.741 -0.183168 -1.27467)
(45.8163 -0.277967 -1.2683)
(48.5005 -0.310086 -1.04784)
(51.1472 -0.169391 -0.889124)
(52.9544 -0.106523 -1.13018)
(55.0261 -0.214107 -1.44593)
(58.6066 -0.0484865 -1.42272)
(60.6551 0.0477792 -0.7217)
(60.4731 0.0957336 -0.583296)
(59.2391 0.440705 -0.478663)
(54.3648 1.20315 -0.323889)
(44.028 0.922309 0.0803674)
(38.138 -0.0027992 0.357339)
(37.6875 -0.146515 0.271931)
(37.567 -0.0814617 0.18698)
(37.6831 -0.0453471 -0.00712588)
(37.9941 -0.0476019 -0.145277)
(38.6194 -0.0845862 -0.330977)
(39.7366 -0.124776 -0.54683)
(41.165 -0.103124 -0.641832)
(42.8896 -0.335824 -0.737305)
(44.3982 0.136466 -0.669228)
(45.9674 -0.127158 -0.858105)
(47.705 0.264926 -1.09022)
(49.5663 -0.229655 -1.57729)
(52.4152 -0.293804 -1.93308)
(55.8991 -0.57515 -2.0838)
(59.7922 -0.502772 -1.60345)
(62.9582 -0.0820094 -0.484794)
(62.677 0.362163 -0.245096)
(58.479 0.893144 -0.0938736)
(46.0612 1.00431 0.109153)
(37.2755 0.43469 0.303773)
(35.9126 0.059412 0.349444)
(36.295 -0.135037 0.352969)
(37.633 -0.119364 0.301492)
(39.1778 -0.133538 0.195777)
(40.9236 -0.147109 0.107571)
(42.8118 -0.203358 0.13409)
(45.2209 -0.259223 0.244331)
(48.1144 -0.290458 0.235479)
(50.7663 -0.171636 0.0444835)
(51.7206 -0.03665 -0.0792266)
(51.6457 0.0339921 -0.0854198)
(51.1484 0.0207317 0.386294)
(50.9415 -0.00289079 0.845944)
(50.8737 0.0197002 0.800281)
(50.6503 0.0739676 0.763243)
(50.082 0.195122 0.685972)
(48.5556 0.152046 0.798992)
(46.9219 0.179219 0.205526)
(45.4568 0.0892557 0.390351)
(43.031 0.0523329 0.596912)
(42.22 -0.107559 1.02969)
(41.4877 0.479664 0.937972)
(41.3071 0.0173591 0.983364)
(41.1164 0.30567 0.865474)
(41.2835 0.0555201 1.15403)
(41.4614 0.992603 0.766011)
(40.6431 0.24155 0.746063)
(41.3707 0.49691 0.846948)
(54.5787 3.55997 1.67435)
(53.1941 3.15472 0.00583926)
(51.5332 3.17317 -1.00281)
(48.4747 1.84501 -0.854837)
(46.9286 0.0806786 -0.34967)
(46.8702 -0.524599 -0.15496)
(47.393 -0.980065 -0.155468)
(48.1695 -1.07564 -0.294076)
(49.4248 -0.690731 -0.465366)
(49.6167 -0.251646 -0.450146)
(49.4644 -0.214179 -0.33753)
(49.6185 -0.309962 -0.163055)
(50.0994 -0.311252 0.01032)
(50.5399 -0.470146 0.158037)
(52.5247 -0.650173 0.290221)
(54.2445 0.118616 0.318088)
(53.7976 0.364263 0.292261)
(53.2351 0.480778 0.230393)
(52.0545 0.473828 0.0998013)
(50.0727 0.470416 -0.627787)
(49.8748 0.216083 -0.961975)
(50.1713 0.16647 -1.04395)
(50.4647 0.0857489 -1.06904)
(50.8245 0.0859666 -1.04332)
(51.1048 0.0973924 -0.980928)
(51.2813 0.0673745 -0.89556)
(51.6711 -0.106203 -0.791907)
(52.8556 -0.37813 -0.626043)
(55.8874 -0.71907 -0.505568)
(57.4823 0.201618 -0.550261)
(56.7411 0.51606 -0.607156)
(54.6479 1.15216 -0.428066)
(50.544 1.85388 -0.118213)
(44.51 1.67015 -0.330541)
(40.4448 0.855233 -0.911476)
(39.9436 0.0897004 -1.06975)
(40.2032 -0.032229 -1.14796)
(40.5796 -0.15358 -1.22515)
(41.1791 -0.344979 -1.25168)
(42.29 -0.572658 -1.17358)
(44.1146 -0.750724 -1.02228)
(46.7402 -0.871601 -0.847547)
(49.57 -0.865388 -0.765479)
(51.565 -0.716408 -0.947695)
(53.5264 -1.07961 -1.18755)
(56.9582 -1.40407 -1.33551)
(60.4511 -0.591591 -1.03787)
(60.7851 -0.0326422 -0.904968)
(60.1124 0.66636 -0.858836)
(57.2825 1.65918 -0.761799)
(51.7729 2.04085 -0.31961)
(45.6916 1.12729 -0.149806)
(40.4751 0.594231 -0.730046)
(38.0266 0.131749 -1.34221)
(37.8198 -0.0222139 -1.50376)
(37.9654 -0.107674 -1.59486)
(38.5648 -0.250139 -1.67989)
(39.6896 -0.335737 -1.64339)
(41.1845 -0.465958 -1.62806)
(42.6911 -0.15992 -1.68373)
(44.0505 -0.589359 -1.95839)
(45.3875 -0.421825 -2.24095)
(46.9709 -0.582179 -2.4782)
(48.9661 -0.416943 -2.68706)
(51.5184 -0.29019 -2.89242)
(54.8278 -0.242046 -3.02558)
(59.7568 -0.637416 -2.88748)
(66.5916 -0.953771 -1.56646)
(67.4295 0.291663 -0.832689)
(62.9232 2.28104 -0.482442)
(48.5595 2.52277 -0.121125)
(37.7144 0.985849 0.0075874)
(35.9327 0.18168 0.011345)
(36.2909 -0.305102 0.0188558)
(37.5193 -0.134612 -0.0213486)
(38.7097 -0.246112 -0.158319)
(40.3967 -0.209153 -0.287005)
(42.3145 -0.263926 -0.172978)
(44.6747 -0.413676 0.1727)
(47.4906 -0.532354 0.358087)
(50.3963 -0.426161 0.105037)
(52.0453 -0.179221 -0.303393)
(52.1011 -0.0884799 -0.35197)
(51.6513 -0.0723288 0.121407)
(51.1331 -0.0619866 0.98641)
(50.9439 -0.0434087 1.2544)
(50.6327 -0.00610503 1.34256)
(50.082 0.0707274 1.25805)
(48.652 0.248507 0.651373)
(45.8453 0.197985 0.889753)
(42.4709 0.443778 1.59465)
(39.8819 0.415618 3.1199)
(39.5541 0.389836 3.30873)
(39.6896 -0.0958603 3.73542)
(39.7511 0.0554457 4.0743)
(39.8796 -0.136061 3.96761)
(40.2583 -0.0698077 4.31944)
(41.1535 -0.100671 4.1518)
(42.4986 -0.150168 3.70573)
(45.1713 -0.54992 4.20118)
(50.7336 0.699023 -3.44256)
(51.441 -0.689288 -3.14953)
(52.6508 -0.0972082 -1.77031)
(53.2576 0.686594 0.931167)
(53.1475 0.69552 1.81459)
(52.7109 0.52238 2.1971)
(51.8106 0.499705 1.95528)
(49.9556 0.475625 1.31838)
(47.6965 0.256234 0.704244)
(45.2187 0.204142 0.389675)
(43.4104 -0.00333034 0.223769)
(43.5115 -0.499673 0.188403)
(44.0505 -0.590663 0.191374)
(45.2951 -1.08131 0.298032)
(48.5469 -1.57061 0.274859)
(51.3269 -0.583937 -0.197932)
(51.0909 -0.00390396 -0.303165)
(50.4259 0.636743 -0.385526)
(48.9549 1.27628 -0.434026)
(46.4521 0.77396 -0.557968)
(45.8904 -0.392125 -0.663734)
(46.1356 -0.470149 -0.67073)
(46.4182 -0.501112 -0.626266)
(46.8174 -0.465761 -0.470105)
(47.1656 -0.31861 -0.177533)
(47.6068 -0.27856 0.146303)
(48.4752 -0.561609 0.219845)
(50.5791 -1.14378 0.105725)
(54.8907 -1.72893 0.451938)
(57.3453 0.403656 1.01054)
(56.7122 1.05976 1.033)
(54.7064 1.98585 0.896388)
(50.867 2.98571 0.825922)
(46.1659 2.72958 0.2511)
(41.5793 1.47817 -0.372557)
(39.7165 0.0317897 -0.544755)
(39.7489 -0.0766811 -0.502401)
(39.9035 -0.187325 -0.428831)
(40.3433 -0.362066 -0.225699)
(41.3953 -0.65231 0.203453)
(43.2869 -1.10162 0.594072)
(46.0847 -1.32496 0.711273)
(49.0632 -1.07336 0.515446)
(51.0737 -0.774765 0.193345)
(53.1064 -1.19626 0.0329472)
(56.489 -1.21684 -0.0626886)
(60.0077 -0.990901 -0.308114)
(60.6745 -0.0795139 -0.455353)
(60.1699 0.727625 -0.528222)
(57.6423 1.89401 -0.387202)
(52.747 2.51077 0.180125)
(47.1686 2.31412 0.183766)
(41.2782 1.8241 -0.959087)
(37.8164 0.609429 -2.12112)
(37.292 0.110916 -2.54459)
(37.4014 -0.01964 -2.63502)
(37.9753 -0.184874 -2.769)
(39.0942 -0.354726 -2.83702)
(40.4363 -0.330091 -2.77698)
(41.9864 -0.520727 -2.69394)
(43.3831 0.0701452 -2.55649)
(44.3997 0.0408874 -2.3927)
(45.5894 0.188394 -2.3127)
(47.3652 0.107891 -2.21454)
(50.0771 0.361883 -2.12807)
(54.0321 0.219334 -1.88768)
(59.9774 -1.25291 -1.46911)
(69.4372 -2.305 -0.940121)
(76.3847 -1.52264 -0.550255)
(73.7129 1.35852 -0.498051)
(58.1445 4.2594 -0.245953)
(40.087 0.910874 0.0328945)
(36.9689 0.136982 0.0306904)
(37.1376 -0.507068 -0.02264)
(38.3454 -0.182632 -0.0741802)
(39.3228 -0.32142 -0.0502892)
(40.8205 -0.374343 0.191599)
(42.626 -0.462965 0.690699)
(44.8976 -0.650782 1.25076)
(47.6009 -0.853649 1.52263)
(50.5329 -0.830361 1.07625)
(52.8705 -0.48085 0.101801)
(53.43 -0.218675 -0.216605)
(53.2748 -0.257538 -0.221051)
(52.6364 -0.239834 0.273171)
(51.746 -0.0993038 0.931646)
(50.8288 0.143898 1.2875)
(49.9365 0.410288 1.26371)
(48.2553 0.719432 1.01166)
(45.1257 1.11606 0.583389)
(40.7573 0.869057 1.69145)
(37.4697 0.321845 2.85771)
(37.2337 -0.177545 3.00622)
(37.1144 0.276357 3.03138)
(37.1105 0.281627 2.8413)
(37.311 0.388074 2.52341)
(37.7267 0.201058 2.43054)
(38.3413 0.188606 2.13693)
(39.0807 0.221217 2.02657)
(40.6795 0.377398 2.13628)
(54.0521 2.24651 -1.08429)
(53.6175 2.25967 0.450567)
(52.2901 2.02016 1.26836)
(51.1576 1.25513 0.946357)
(50.6621 0.318164 -0.211556)
(50.4619 0.292153 -1.60069)
(50.3702 0.633701 -1.91841)
(49.8481 1.199 -2.08916)
(48.7839 1.59932 -1.78219)
(47.1309 1.81818 -1.33441)
(45.3449 0.697882 -0.365832)
(45.3423 -0.321998 -0.141216)
(46.2459 -0.813364 0.000323193)
(47.5734 -1.99983 0.0511409)
(50.2077 -2.86811 0.266079)
(52.7608 -0.814755 0.980671)
(52.5696 0.472262 1.0119)
(51.7795 0.990823 1.00714)
(50.4588 1.42234 1.39316)
(48.3339 1.33577 2.09938)
(46.894 0.519265 0.720003)
(46.3507 0.28833 -0.383868)
(46.2728 0.0807647 -0.602078)
(46.4439 0.062678 -0.628753)
(46.6046 0.000231834 -0.697246)
(46.9386 -0.236244 -0.860996)
(47.9909 -0.90751 -1.20451)
(50.3788 -1.99582 -1.78024)
(55.171 -2.53681 -1.78072)
(58.005 0.0808566 -0.854411)
(57.4911 1.16139 -0.622344)
(55.8706 2.49292 -0.0206318)
(52.7303 3.49384 0.324964)
(48.8786 3.34042 -0.293025)
(43.9911 2.67533 -0.422289)
(40.2968 0.749227 0.574842)
(39.632 0.08855 1.03735)
(39.7046 -0.134623 1.16375)
(40.1075 -0.521234 1.42117)
(41.3021 -1.11052 1.71334)
(43.3714 -1.70949 1.96395)
(46.1934 -2.17619 1.67947)
(49.2315 -1.94126 0.649767)
(51.4323 -1.50171 0.589736)
(53.5341 -2.25134 2.22476)
(57.7138 -3.34689 3.69405)
(61.7935 -1.63435 0.942209)
(61.9376 -0.140538 0.166693)
(61.2153 1.1862 -0.31669)
(57.642 3.01249 -0.358867)
(51.9363 3.81581 0.213861)
(46.6389 3.18982 -0.0354987)
(41.1359 2.7999 -0.984766)
(37.2974 1.13842 -1.64987)
(36.3182 0.401626 -1.78827)
(36.3522 0.196919 -1.80139)
(36.7942 -0.00234541 -1.81328)
(37.7159 -0.162226 -1.81259)
(38.9757 -0.387031 -1.82776)
(40.2355 -0.135859 -1.72214)
(41.5022 -0.330858 -1.65082)
(42.7687 0.000256461 -1.53592)
(43.9824 0.235906 -1.3838)
(45.758 0.326979 -1.35133)
(48.7317 0.288363 -1.1031)
(53.4825 0.0630361 -0.616926)
(60.3155 -1.77682 -0.0781924)
(69.7334 -3.76984 0.190146)
(79.9592 -3.17792 0.234645)
(79.7131 -0.103126 0.184658)
(70.6729 5.34199 0.128159)
(47.9147 2.47355 0.0667409)
(38.841 0.360669 -0.0960406)
(38.5713 -0.823436 -0.160529)
(39.5672 -0.0314503 -0.100556)
(39.9411 -0.322166 0.108572)
(41.2379 -0.329325 0.676717)
(43.0382 -0.416268 1.58274)
(45.28 -0.611891 2.24902)
(47.9135 -0.934245 2.38756)
(50.8181 -0.998108 1.82812)
(53.4338 -0.717278 0.635791)
(54.4563 -0.399425 -0.126348)
(54.4358 -0.377254 -0.0533915)
(53.8917 -0.315633 0.631643)
(52.6473 -0.0949435 1.63075)
(51.3504 0.0636462 2.06857)
(50.2137 0.401084 1.99475)
(48.4125 0.804977 1.55246)
(45.4162 1.19445 1.29316)
(41.2874 1.47591 1.45799)
(37.6939 0.986872 1.76124)
(35.3068 0.563308 1.72268)
(34.7608 0.177517 1.68954)
(34.8834 0.21445 1.68524)
(35.2147 0.123762 1.56761)
(35.7671 0.161285 1.52406)
(36.3127 0.109049 1.29306)
(36.9053 0.191317 1.14213)
(39.4796 -0.431028 1.12002)
(46.5401 -0.156707 2.38315)
(48.4566 -0.0450836 2.70082)
(50.4569 0.352636 2.01687)
(51.449 0.664872 1.31364)
(52.2393 0.608793 0.128934)
(53.3568 0.536115 -0.833622)
(54.1985 0.504503 -1.56)
(53.9478 0.872155 -1.77802)
(53.2056 1.15317 -1.2742)
(52.0704 1.14111 0.286735)
(49.7966 0.578011 0.768629)
(47.9044 -1.00887 0.514078)
(48.1634 -1.3342 0.43007)
(48.4294 -2.36357 0.538278)
(50.0211 -2.96793 0.630048)
(52.9058 -1.44546 0.17775)
(53.0167 0.134321 0.096075)
(52.2169 0.902246 0.452011)
(50.721 2.07581 1.61186)
(48.4221 1.87936 1.68276)
(47.0095 0.416906 0.528539)
(46.9866 -0.1012 0.107991)
(47.0215 -0.363406 -0.154425)
(47.2098 -0.457035 -0.340804)
(47.4059 -0.316367 -0.729211)
(47.68 -0.539751 -0.978776)
(48.6629 -1.32232 -1.04166)
(50.956 -2.79015 -0.871909)
(55.3652 -3.50236 -0.758787)
(58.9025 -0.000774178 -1.29446)
(58.5071 1.53916 -1.35608)
(56.9683 3.00891 -1.15213)
(53.84 4.4025 -1.02248)
(50.1467 4.45555 -0.981764)
(45.0389 3.88308 -0.653274)
(40.8459 1.4207 0.549616)
(39.6537 0.318655 0.956512)
(39.5865 -0.112213 0.912253)
(39.9488 -0.48546 0.88386)
(41.0178 -1.0865 0.995109)
(42.9189 -1.93922 1.38828)
(45.7926 -2.68129 1.1261)
(49.3065 -2.42853 0.440306)
(51.9392 -1.13661 1.2911)
(54.8932 -1.75071 2.44666)
(61.0657 -3.92616 3.21715)
(68.7079 -3.43986 1.81147)
(69.2636 -1.14927 1.12779)
(66.3986 2.18092 0.465421)
(59.5626 4.36891 0.237587)
(50.8448 4.53837 0.175714)
(45.3968 4.0112 -0.477132)
(40.4261 4.19158 -0.977525)
(36.3203 2.00164 -1.02018)
(35.3227 1.0808 -0.898699)
(35.3621 0.864038 -0.864412)
(35.7748 0.649403 -0.821966)
(36.6308 0.328668 -0.82206)
(37.6848 0.176954 -0.872386)
(38.8415 -0.163587 -0.914141)
(40.0219 0.278759 -0.974312)
(41.0347 0.492223 -0.890306)
(42.1612 0.669758 -0.668093)
(44.0238 0.452048 -0.467467)
(47.3692 0.15363 -0.313364)
(52.7593 -0.695862 -0.176055)
(60.5522 -2.41979 -0.136735)
(69.7487 -4.99951 -0.13416)
(81.138 -4.5571 0.118648)
(82.1901 -1.72386 0.22446)
(78.668 3.5573 0.261064)
(62.4378 5.30977 0.241274)
(41.5105 0.0127378 0.0762539)
(39.415 -1.22677 0.0751987)
(40.0016 0.0634163 0.153703)
(40.1342 -0.31166 0.402278)
(41.3005 -0.439469 0.927399)
(43.146 -0.566332 1.82196)
(45.3929 -0.737489 2.35487)
(48.0115 -1.0823 2.30808)
(50.8896 -1.34481 1.80704)
(53.7203 -1.09899 0.946728)
(55.3173 -0.546958 0.196475)
(55.5189 -0.573551 0.266913)
(55.2185 -0.587899 0.61288)
(54.0432 -0.192738 1.39943)
(52.3704 0.152557 1.95165)
(50.8254 0.693447 2.14035)
(48.6071 1.30536 1.9442)
(45.2507 1.97404 1.77955)
(41.0569 1.94211 1.68143)
(37.1626 1.34599 1.56086)
(35.1149 0.737549 1.1095)
(34.408 0.823765 0.871821)
(34.3975 0.833603 0.834248)
(34.5709 0.9269 0.688998)
(34.9711 0.785871 0.57895)
(35.2622 0.601446 0.550112)
(35.7478 0.648978 0.487348)
(37.2969 0.437438 0.455162)
(44.1442 0.907831 0.617262)
(43.6897 -0.0307945 -0.206811)
(44.7655 0.212938 -0.674215)
(47.033 0.0896634 -1.37228)
(49.3361 -0.59966 -1.39273)
(51.2366 -0.822604 -0.962707)
(53.745 0.194812 -0.354858)
(54.7715 1.50048 0.0498958)
(54.3701 2.01157 0.0841502)
(53.0033 2.79809 0.015143)
(48.9511 2.89216 0.139332)
(44.694 0.418558 0.772821)
(44.741 -0.60773 0.954732)
(45.4686 -2.2073 1.23692)
(47.956 -3.91213 1.6008)
(51.7414 -2.34835 0.9292)
(52.4625 0.90997 0.391369)
(51.8006 1.46622 0.426673)
(50.4725 2.42381 0.651392)
(48.2781 2.26554 0.524283)
(46.6379 1.05657 0.164033)
(46.5134 0.406538 0.126103)
(46.6855 0.19412 0.206215)
(46.977 0.158287 0.265377)
(47.1877 -0.00581835 0.269953)
(47.5706 -0.443221 0.283554)
(48.645 -1.72031 0.425364)
(51.0106 -3.70464 0.818767)
(55.2023 -4.65573 1.00003)
(59.3258 -0.84307 -0.138822)
(59.2982 1.69894 -0.438396)
(57.9322 3.37321 -0.633084)
(54.4661 4.78214 -0.584235)
(50.2564 5.04182 -0.412432)
(45.0311 5.27978 0.0917696)
(40.9907 2.331 0.264675)
(39.3254 0.746394 0.099112)
(39.0114 0.178391 0.102243)
(39.3431 -0.0358312 0.208479)
(40.4675 -0.305556 0.493429)
(42.4682 -0.765702 0.652437)
(45.6227 -2.11927 0.810843)
(50.0146 -2.61649 1.19564)
(53.7253 -0.860924 1.48088)
(57.817 -1.47157 1.28093)
(65.3215 -6.20032 1.10247)
(75.3226 -5.54496 1.04561)
(83.4351 -2.86315 0.629919)
(81.7004 0.877715 0.563333)
(70.9763 6.43297 0.847944)
(49.9531 8.1203 0.042716)
(42.9325 3.49136 -0.841374)
(38.8153 5.03836 -0.849435)
(35.4548 2.72535 -0.554245)
(34.5789 1.63981 -0.370407)
(34.5975 1.31178 -0.335566)
(35.0981 1.0433 -0.310026)
(35.9558 0.760371 -0.319744)
(36.9934 0.44597 -0.310761)
(37.9825 0.473568 -0.247085)
(38.889 0.331096 -0.265631)
(39.8632 0.597203 -0.203872)
(40.9332 0.790842 -0.0208433)
(42.752 0.178819 0.0694307)
(46.3348 -0.832383 0.0157155)
(52.4041 -1.41149 -0.0810952)
(60.8059 -3.03893 -0.101871)
(69.4734 -6.70968 -0.0415115)
(80.1656 -5.45546 0.092254)
(83.505 -2.16452 0.209125)
(81.9456 2.27618 0.254017)
(75.8043 4.38864 0.29289)
(54.862 3.18946 0.090618)
(40.9425 -2.63571 0.0379518)
(40.3533 0.133122 0.167612)
(40.399 -0.247352 0.272213)
(41.5357 -0.368288 0.570529)
(43.3177 -0.455763 1.04149)
(45.4968 -0.600173 1.30593)
(48.0408 -0.934564 1.39497)
(50.8575 -1.36062 1.09643)
(53.7874 -1.3188 0.699052)
(56.0694 -0.938204 0.414622)
(57.0431 -0.798589 0.384392)
(57.0218 -0.876268 0.413121)
(56.1096 -0.404787 0.587152)
(54.0811 0.0538733 0.989902)
(51.8178 0.708736 1.3722)
(49.0317 1.47336 1.49788)
(45.5072 2.17673 1.66316)
(41.1388 2.56602 1.49568)
(36.9775 2.07871 1.36023)
(34.6653 1.25999 0.987075)
(33.6121 0.818219 0.654573)
(33.5623 0.735036 0.594273)
(33.7333 0.637231 0.407181)
(34.1872 0.627083 0.32515)
(34.5595 0.614975 0.209101)
(35.0855 0.784624 0.140731)
(37.2293 -0.0176215 0.179032)
(49.1741 1.03118 -1.43873)
(49.857 -1.07014 -1.40995)
(50.0161 -1.93324 0.535194)
(49.8948 -2.23603 1.19907)
(49.8728 -1.83122 1.28028)
(50.1008 -1.64819 1.28818)
(51.0576 -1.65381 1.30654)
(52.3596 0.258137 0.529936)
(52.2927 1.45958 0.301541)
(51.3767 3.14201 0.0903836)
(48.3286 3.981 0.0191901)
(44.7859 0.534518 0.237255)
(44.8238 -1.33275 0.351433)
(45.9849 -3.61219 0.737002)
(48.6252 -5.06269 1.15858)
(52.7122 -3.40341 0.527015)
(53.8943 0.00850049 -0.0628298)
(53.0794 1.0671 -0.191642)
(51.0079 2.93481 -0.48958)
(48.0462 2.83567 -0.40365)
(45.1514 1.1889 0.399647)
(44.5583 -0.177729 0.787087)
(44.8335 -0.394658 0.934914)
(45.3498 -0.522508 1.14092)
(46.254 -0.282587 0.900461)
(47.1383 -0.611342 0.490566)
(48.5325 -1.51121 0.43399)
(51.2559 -4.02867 0.97058)
(56.767 -8.0231 2.03079)
(62.5123 -2.27207 -0.158709)
(61.5122 1.47446 -0.616109)
(59.617 4.61628 -0.66206)
(55.0805 6.71181 -0.594247)
(49.9937 6.41067 -0.929909)
(44.6466 6.34001 -0.708246)
(40.674 2.92404 0.479747)
(38.7323 1.37804 1.3998)
(38.302 0.848638 1.67248)
(38.6248 0.773769 1.75188)
(39.8041 0.559763 1.83272)
(41.983 -0.103086 1.73582)
(45.5033 -1.666 1.33852)
(50.351 -2.49793 0.794341)
(54.4407 -1.48628 0.51471)
(59.3584 -2.81273 0.3501)
(68.6204 -6.4376 0.0207406)
(78.0684 -5.87629 -0.263119)
(87.3843 -4.37232 -0.0774523)
(86.9098 -0.502064 0.102222)
(79.908 5.90749 0.617453)
(54.2259 10.5328 -0.115717)
(40.9283 2.69998 -0.458134)
(37.4851 5.9936 -0.163003)
(34.4057 3.31537 0.120153)
(33.7993 2.37311 0.246788)
(33.8508 2.04858 0.25148)
(34.459 1.71562 0.1987)
(35.3445 1.28921 0.172886)
(36.2745 1.03653 0.152125)
(37.1586 0.771506 0.193989)
(38.0163 0.928324 0.0495687)
(38.881 1.11976 0.0363349)
(39.8831 0.895189 0.187684)
(41.7689 0.0180558 0.213409)
(45.2815 -0.912239 0.100889)
(51.5319 -2.51365 -0.042543)
(60.3304 -5.04595 -0.141529)
(68.564 -7.90985 -0.0226506)
(76.0881 -6.95999 0.10892)
(81.5647 -2.66186 0.194792)
(82.0911 1.05598 0.198728)
(80.5594 2.3189 0.161595)
(70.1076 2.84271 0.106585)
(46.8019 -1.08366 0.261837)
(40.4767 -0.293281 0.30968)
(40.2465 -0.339406 0.289176)
(41.5299 -0.513647 0.14307)
(43.3959 -0.593243 -0.087461)
(45.6355 -0.673027 -0.300469)
(48.2374 -0.915692 -0.382347)
(51.0777 -1.41843 -0.0843853)
(54.0436 -1.5099 -0.0611327)
(56.7128 -1.20269 -0.251465)
(58.9373 -1.08028 -0.0170676)
(60.0276 -1.27433 0.343405)
(59.6358 -0.859891 0.467157)
(57.7032 -0.0432852 0.753561)
(54.3904 0.954667 1.06058)
(50.1746 1.93631 1.2225)
(45.5386 2.90604 1.58928)
(40.7683 3.17273 1.44518)
(36.4321 2.49 1.09253)
(33.9505 1.70257 0.530589)
(33.116 1.55599 0.230448)
(33.0792 1.49816 0.154675)
(33.2021 1.55476 0.0439684)
(33.5508 1.41239 0.00890856)
(33.7862 1.17465 0.00530522)
(34.2823 1.27324 0.138766)
(36.1973 0.599905 0.275544)
(53.2511 -1.39259 0.419248)
(54.0028 -0.517223 1.69977)
(53.079 0.549939 2.02466)
(51.2384 0.637796 0.614928)
(51.2361 0.0696508 -0.0639294)
(51.996 -0.975335 -0.594574)
(53.044 -0.705775 -0.0198106)
(53.3508 0.835772 0.568922)
(53.1366 2.07492 0.608602)
(51.9315 3.93819 0.606362)
(49.0234 5.30074 0.715054)
(45.6593 2.1381 0.814575)
(45.0275 -0.797272 0.777009)
(46.1204 -3.20758 0.803006)
(48.4365 -6.9775 0.954591)
(52.7682 -5.8035 0.815114)
(54.3784 0.675851 0.206183)
(53.6865 2.25222 0.063389)
(51.6932 4.32224 -0.360455)
(48.795 4.16295 -0.423325)
(45.8845 2.86311 0.0811251)
(44.9765 0.520954 0.527743)
(45.1826 0.161896 0.736157)
(45.8877 -0.0232288 0.86649)
(46.9665 -0.232207 0.641742)
(47.6543 -0.372963 0.588059)
(48.8693 -0.512272 0.823979)
(52.4704 -1.65585 1.28262)
(58.1633 -6.79263 1.5827)
(68.0878 -10.0304 0.924109)
(71.3453 0.130123 -0.0331416)
(66.2661 4.81429 -0.136936)
(55.5961 9.41432 -0.700251)
(48.8732 7.50253 -1.31228)
(43.8067 7.52804 -0.642153)
(40.0489 3.99304 0.428464)
(37.9472 2.24716 1.06132)
(37.404 1.61264 1.1719)
(37.7798 1.62925 1.11229)
(39.1031 1.61848 0.796657)
(41.4127 1.1182 0.339313)
(45.1254 -0.855871 0.0581912)
(50.588 -2.11528 -0.0345469)
(55.0077 -0.781014 0.195141)
(60.3797 -3.12504 0.239644)
(70.342 -8.49657 -0.0358449)
(79.2887 -7.08289 -0.239045)
(88.0275 -4.52907 -0.174333)
(88.9747 -0.634437 -0.100135)
(83.7757 6.49009 0.0152859)
(60.6356 12.5451 -0.253008)
(38.3905 3.40375 -0.00316165)
(36.0853 5.82378 0.187088)
(33.8433 3.95846 0.217981)
(33.2605 2.91628 0.209011)
(33.2759 2.51339 0.195668)
(33.9456 2.15314 0.130343)
(34.8443 1.81748 0.0887729)
(35.7584 1.57812 0.0228224)
(36.5419 1.49417 0.0302615)
(37.2415 1.36118 -0.0191422)
(38.0909 1.26528 0.0405766)
(39.0808 1.07998 0.119349)
(40.6805 0.0284869 0.124598)
(43.9854 -1.8221 0.0688026)
(50.0873 -4.16581 0.0080632)
(58.5361 -6.00757 -0.00194764)
(65.816 -9.2884 0.00221834)
(71.3864 -6.70704 0.0771242)
(74.875 -3.47268 0.128654)
(78.5059 0.625416 0.119452)
(79.1936 2.20964 0.0920549)
(72.4932 2.46978 0.111944)
(50.1839 1.59161 0.228429)
(40.7344 -0.525464 0.202217)
(40.3739 -0.495244 0.176082)
(41.7057 -0.56714 0.127876)
(43.644 -0.577401 0.494271)
(45.9329 -0.609554 0.337158)
(48.5548 -0.807524 0.610551)
(51.3919 -1.19548 0.822462)
(54.3343 -1.47432 0.567581)
(57.2163 -1.44818 0.0521511)
(60.0863 -1.4367 -0.197661)
(63.2231 -1.45364 0.129882)
(63.8571 -1.02741 0.414551)
(62.7668 -0.522504 0.489374)
(59.2167 0.835913 0.69945)
(52.6248 2.28524 1.00281)
(45.8309 3.20397 1.46877)
(40.1431 3.81574 1.24258)
(35.6509 3.32484 0.783327)
(33.513 2.16019 0.269568)
(32.6078 1.62203 0.0804183)
(32.5466 1.4387 0.00533459)
(32.6947 1.33265 -0.065206)
(33.1173 1.30505 -0.194762)
(33.3461 1.25125 0.0915437)
(33.7192 1.33642 0.325631)
(35.744 0.299841 0.417321)
(47.8914 -3.2256 0.000967556)
(49.2899 -1.66771 -0.776333)
(50.1352 -0.609321 -2.4468)
(51.3681 -1.61512 -2.93514)
(53.0134 -2.57994 -2.38767)
(53.903 -2.67424 -1.84998)
(54.0353 -1.93648 -1.40132)
(53.9961 -0.247409 -0.725343)
(53.4177 1.8489 -0.12693)
(51.2653 4.31318 0.513423)
(47.5178 5.98404 0.808085)
(43.4567 2.5439 0.389444)
(42.4726 -0.336392 0.102406)
(43.6685 -2.08648 0.0363647)
(46.8535 -7.11323 0.128874)
(51.8935 -10.9763 0.0345159)
(56.5373 -4.06142 -0.273101)
(55.6184 1.37972 -0.408079)
(51.9978 5.55395 -0.399709)
(47.9138 4.91524 -0.119555)
(45.2956 3.16113 -0.622383)
(44.029 0.211278 -1.15617)
(44.1782 -0.272123 -1.23226)
(44.8689 -0.617128 -1.20346)
(45.8161 0.0242245 0.104401)
(46.5007 1.20719 1.25221)
(47.9498 2.30729 1.54405)
(52.2899 1.81003 0.767427)
(59.7315 -5.18747 -0.587294)
(71.8 -10.0691 -0.529969)
(81.5629 -5.65779 -0.177801)
(77.8468 1.77594 -0.0564399)
(63.5011 10.1128 -0.848552)
(49.0861 6.98279 -0.922721)
(42.5381 7.79867 -0.0781372)
(38.7363 4.60327 0.345071)
(36.7895 3.23865 0.442555)
(36.291 2.65298 0.433621)
(36.7797 2.736 0.40649)
(38.2744 2.60728 0.380633)
(40.8017 1.77824 0.458917)
(44.7242 -0.679441 0.591654)
(50.4387 -2.58461 0.72542)
(55.3851 -1.38027 1.03855)
(60.3538 -5.50224 0.477379)
(71.6116 -9.29216 -0.330735)
(78.7225 -9.38356 -0.343868)
(82.2568 -7.26134 -0.126167)
(84.9716 -0.166371 -0.0404446)
(81.4435 6.61998 -0.0662141)
(65.9336 15.1277 -0.225167)
(41.4793 8.8683 0.0624218)
(35.3957 4.9696 0.176233)
(33.3223 4.17793 0.139049)
(32.6462 3.62401 0.0964479)
(32.6363 3.22023 0.0720344)
(33.3495 2.82337 0.00859073)
(34.2843 2.39792 -0.0476922)
(35.141 2.09608 -0.0466363)
(35.8644 1.96909 -0.0535595)
(36.5321 1.71895 0.00142091)
(37.3826 1.56138 0.0551752)
(38.2656 1.21802 0.0965344)
(39.6163 -0.084891 0.0428657)
(42.5474 -2.3405 -0.0673531)
(47.932 -5.71424 0.0557873)
(55.0107 -8.48784 0.347111)
(60.5804 -9.31119 0.438436)
(64.7327 -6.64856 0.372954)
(67.3301 -2.9767 0.309596)
(71.1371 -0.333878 0.202015)
(73.5909 0.784701 0.0777064)
(67.3542 1.41357 0.0718195)
(46.6357 2.53687 0.245332)
(40.4946 -0.791377 0.355254)
(40.3449 -0.771377 0.343344)
(41.7186 -0.756876 0.388859)
(43.7794 -0.760369 0.402032)
(46.1584 -0.695684 0.469662)
(48.8012 -0.802046 0.548923)
(51.6074 -1.24602 0.564987)
(54.5642 -1.46318 0.543356)
(57.5946 -1.40737 0.304215)
(60.7107 -1.76512 0.0797195)
(64.4929 -1.98986 0.0634447)
(67.065 -1.28471 0.240368)
(66.705 -0.616845 0.263667)
(64.408 0.659753 0.347908)
(57.4231 2.84931 0.719662)
(47.0143 4.05715 1.33872)
(39.2812 4.43367 1.04455)
(34.956 3.74384 0.488)
(32.9251 2.56709 0.152164)
(32.1081 2.30684 -0.0335221)
(32.0744 2.21411 -0.0759005)
(32.208 2.20814 -0.119987)
(32.5506 2.05702 -0.181724)
(32.7204 1.94034 0.343264)
(33.0968 1.80143 0.513041)
(34.7867 0.709035 0.458749)
(47.913 -1.45566 1.23953)
(48.7463 -1.31656 -0.686641)
(48.3889 -0.387601 -0.0790384)
(48.4978 -0.12827 1.08624)
(48.9858 -0.0829746 2.17261)
(49.7472 -0.744598 2.26764)
(50.9199 -0.694985 1.59668)
(52.4259 1.64988 0.810882)
(52.0834 3.18567 0.562852)
(50.3943 7.44388 0.452166)
(47.6085 8.9015 0.384334)
(43.672 5.22526 0.237669)
(42.5884 3.27738 0.20917)
(43.4635 2.20334 0.250978)
(47.5265 -3.51346 0.348835)
(52.5102 -9.5484 0.37843)
(61.503 -7.72475 0.0598814)
(63.1309 -0.1896 -0.170486)
(57.2518 5.70598 -0.108717)
(49.23 5.72895 -0.292261)
(44.3431 4.19208 -0.758417)
(42.4725 1.87339 -0.920267)
(42.7557 1.62607 -0.965398)
(43.5678 1.43619 -1.13735)
(44.342 1.27283 -1.10962)
(44.9719 2.15779 -0.976221)
(46.7416 2.33359 -1.1287)
(52.4462 0.983077 -1.80294)
(62.4166 -4.13562 -1.62597)
(73.3142 -10.9099 -0.251907)
(86.5497 -6.86482 -0.117741)
(84.223 0.253656 -0.437037)
(72.9928 9.09907 -1.34484)
(49.2458 11.8712 -0.579401)
(41.0765 7.48487 0.210766)
(37.2866 6.01544 0.289413)
(35.4215 4.23482 0.279673)
(34.9854 3.60567 0.294479)
(35.6633 3.72534 0.330851)
(37.4225 3.60234 0.408748)
(40.0907 3.02418 0.468302)
(44.1344 -0.635282 0.187477)
(50.2745 -2.421 -0.00815062)
(55.3071 -2.14851 0.768533)
(59.2691 -5.15308 0.0965374)
(69.3086 -11.5073 -1.09913)
(76.6226 -8.78634 -0.573098)
(77.0563 -4.84676 -0.0923813)
(79.1738 -0.511057 -0.0310876)
(78.3634 6.79069 -0.0507729)
(68.6595 15.9971 -0.106257)
(46.5585 12.1951 0.0585786)
(34.9269 4.36006 0.0823249)
(32.2475 4.70323 0.0133725)
(31.9986 4.12659 -0.0378596)
(32.0052 3.73411 -0.0506946)
(32.7816 3.30981 -0.0810819)
(33.7377 3.00065 -0.124991)
(34.6395 2.88835 -0.102937)
(35.3159 2.60009 -0.0305462)
(35.7997 2.21276 0.00712239)
(36.5108 1.84337 0.0509932)
(37.2393 1.50031 0.0768968)
(38.3979 -0.198721 -0.00603974)
(40.7501 -3.3532 0.0427946)
(44.9795 -7.1458 0.268837)
(50.7607 -9.42871 0.182442)
(53.9625 -10.3997 -0.0213105)
(56.603 -7.30075 -0.0314234)
(58.3303 -2.98817 0.0046283)
(60.8278 -0.668138 0.00987004)
(62.1166 0.934637 0.0054224)
(56.7179 1.28468 0.018414)
(42.6971 4.49002 0.146703)
(40.3432 -1.26152 0.186245)
(40.1957 -0.78721 0.222247)
(41.6343 -0.791939 0.240931)
(43.8166 -0.704338 0.22004)
(46.2849 -0.600464 0.190774)
(48.9401 -0.674185 0.0500679)
(51.6873 -1.06973 -0.19113)
(54.549 -1.47183 -0.302388)
(57.6083 -1.57744 -0.156436)
(60.8095 -1.9967 -0.125273)
(64.5345 -2.30121 -0.0849136)
(67.9462 -1.56504 0.120046)
(67.8898 -0.821942 0.15586)
(66.5199 0.227745 0.174271)
(61.5931 2.6507 0.5305)
(49.3873 5.36303 1.04728)
(38.9709 4.62611 0.916429)
(34.162 4.54569 0.317259)
(32.4402 2.96576 0.0570785)
(31.6724 2.4923 -0.0949656)
(31.6096 2.2471 -0.137161)
(31.7601 2.18035 -0.0960465)
(32.1254 2.09386 0.085916)
(32.176 2.04525 0.336953)
(32.3291 1.69681 0.420523)
(33.7116 0.434426 0.391451)
(20.2921 6.23075 0.274432)
(19.3357 4.76767 0.418293)
(21.7079 3.02798 0.5842)
(23.8311 3.02564 0.559458)
(26.1255 1.7958 0.370659)
(29.7963 -1.723 0.0645178)
(34.1213 -7.6223 -0.307882)
(42.8689 -10.5813 -0.399297)
(53.2778 3.38438 -0.00983064)
(50.8539 7.03036 0.0754393)
(46.4793 9.28275 0.0614809)
(42.9122 7.35556 0.0900711)
(41.1893 5.20013 0.174336)
(41.9701 3.60275 0.197202)
(46.9839 0.0810601 0.088349)
(52.2539 -10.7639 -0.424764)
(57.5267 -13.7482 -0.495069)
(64.8613 -3.65178 -0.316886)
(61.3797 4.34193 -0.218838)
(51.313 8.09274 -0.321204)
(42.265 3.55276 -0.62981)
(39.0886 2.65055 -0.726597)
(39.5083 2.46727 -0.749544)
(40.5423 2.06145 -0.74702)
(41.2376 2.2295 -0.861411)
(41.9444 3.14883 -0.876685)
(43.737 3.96486 -0.835468)
(49.8698 1.84647 -0.886802)
(61.0017 -4.73158 -0.172618)
(68.9748 -14.4538 1.36488)
(79.4523 -9.70394 1.64068)
(83.5138 -0.392621 0.733757)
(77.434 10.745 0.10639)
(53.3287 15.4286 -0.0794404)
(38.8239 6.60282 0.296375)
(35.6567 6.61797 0.311447)
(33.9757 5.41387 0.331995)
(33.664 4.82653 0.364361)
(34.5117 4.91374 0.399185)
(36.599 4.66002 0.448089)
(39.4352 3.24054 0.359503)