/*--------------------------------*- C++ -*----------------------------------*\
| =========                 |                                                 |
| \\      /  F ield         | OpenFOAM: The Open Source CFD Toolbox           |
|  \\    /   O peration     | Version:  2.3.0                                 |
|   \\  /    A nd           | Web:      www.OpenFOAM.org                      |
|    \\/     M anipulation  |                                                 |
\*---------------------------------------------------------------------------*/
FoamFile
{
    version     2.0;
    format      ascii;
    class       volScalarField;
    location    "0.03";
    object      varZ;
}
// * * * * * * * * * * * * * * * * * * * * * * * * * * * * * * * * * * * * * //

dimensions      [0 0 0 0 0 0 0];

internalField   nonuniform List<scalar> 
5000
(
5.50156e-27
6.02145e-26
4.03484e-25
1.99837e-24
8.21323e-24
2.98235e-23
1.04828e-22
4.00395e-22
2.24574e-21
1.84328e-20
1.70874e-19
1.18764e-18
5.80197e-18
1.53927e-17
1.58521e-17
7.84651e-18
3.60322e-18
1.62123e-18
9.29502e-19
1.24189e-18
3.25737e-18
1.01874e-17
3.36167e-17
1.21906e-16
5.27566e-16
2.62034e-15
1.05974e-14
2.40146e-14
2.44108e-14
1.24948e-14
9.0766e-15
2.32272e-14
1.10918e-13
5.01207e-13
1.90032e-12
6.16638e-12
1.76164e-11
4.44927e-11
9.74694e-11
1.81945e-10
2.75885e-10
3.37965e-10
3.55282e-10
4.09874e-10
5.38163e-10
5.48627e-10
3.86196e-10
2.66656e-10
2.77586e-10
5.89054e-10
1.73668e-09
5.99155e-09
1.97677e-08
5.26446e-08
1.12232e-07
1.79778e-07
2.56689e-07
3.64473e-07
5.05201e-07
6.88658e-07
9.32572e-07
1.27327e-06
1.72938e-06
2.35005e-06
3.17578e-06
4.21384e-06
4.90727e-06
4.42557e-06
3.40059e-06
2.31653e-06
1.3202e-06
6.80251e-07
3.72747e-07
4.10963e-07
6.12485e-07
1.15322e-06
2.07068e-06
3.31987e-06
4.07003e-06
3.98148e-06
3.61321e-06
3.16211e-06
2.7809e-06
2.08526e-06
1.19241e-06
6.28315e-07
5.11809e-07
4.9881e-07
4.98399e-07
5.10779e-07
5.43912e-07
6.09448e-07
7.13249e-07
8.79519e-07
1.14528e-06
1.54878e-06
2.13569e-06
2.93931e-06
3.98499e-06
6.64701e-06
3.72458e-25
2.77078e-24
2.02542e-23
1.18174e-22
5.53442e-22
2.35724e-21
9.90734e-21
4.17958e-20
2.22987e-19
1.75716e-18
2.00956e-17
1.74978e-16
1.01425e-15
3.40895e-15
4.24708e-15
1.84597e-15
7.5196e-16
2.97841e-16
1.27929e-16
1.02016e-16
2.37143e-16
8.09038e-16
2.99612e-15
1.1811e-14
5.31565e-14
2.80182e-13
1.25321e-12
3.03386e-12
3.08006e-12
1.4018e-12
6.81089e-13
7.81409e-13
3.07053e-12
1.44229e-11
5.80351e-11
1.97138e-10
5.82656e-10
1.54183e-09
3.60553e-09
7.24569e-09
1.17744e-08
1.5228e-08
1.64507e-08
1.95387e-08
2.79728e-08
3.17209e-08
2.227e-08
1.26821e-08
7.43545e-09
6.2151e-09
1.20408e-08
3.25716e-08
9.19615e-08
2.91431e-07
7.12989e-07
1.36563e-06
2.23126e-06
3.24454e-06
4.34466e-06
5.53851e-06
6.96279e-06
8.93246e-06
1.18751e-05
1.63952e-05
2.35062e-05
3.70781e-05
6.36655e-05
8.29601e-05
6.89096e-05
4.3851e-05
2.19361e-05
5.33436e-06
1.2393e-06
1.24369e-06
1.80549e-06
3.02158e-06
4.79077e-06
7.13277e-06
9.9107e-06
1.17672e-05
1.18443e-05
1.1348e-05
9.83956e-06
7.12995e-06
4.03315e-06
2.18649e-06
1.68131e-06
1.64335e-06
1.61992e-06
1.54877e-06
1.51697e-06
1.61305e-06
2.00205e-06
2.77055e-06
3.96996e-06
5.62005e-06
7.7698e-06
1.03041e-05
1.31304e-05
1.88222e-05
1.87641e-22
3.67194e-22
1.07512e-21
4.70799e-21
1.84313e-20
7.42489e-20
3.74928e-19
2.23869e-18
1.90803e-17
2.11351e-16
2.42948e-15
2.30223e-14
1.39549e-13
4.71439e-13
5.9474e-13
2.63983e-13
1.03754e-13
3.98726e-14
1.58312e-14
9.69867e-15
1.93922e-14
6.99033e-14
2.8152e-13
1.20556e-12
5.62483e-12
2.74543e-11
1.09819e-10
2.50911e-10
2.55046e-10
1.16283e-10
5.16212e-11
3.15148e-11
7.09685e-11
3.18808e-10
1.3356e-09
4.59157e-09
1.34477e-08
3.54293e-08
8.38695e-08
1.73512e-07
2.96101e-07
4.04463e-07
4.53276e-07
5.50324e-07
8.32955e-07
1.07722e-06
8.2584e-07
4.70154e-07
2.49955e-07
1.29825e-07
8.604e-08
1.23029e-07
2.79077e-07
8.50153e-07
2.21875e-06
4.6239e-06
8.26014e-06
1.28401e-05
1.76694e-05
2.2149e-05
2.63632e-05
3.15568e-05
3.94226e-05
5.16698e-05
6.99166e-05
0.000100987
0.000163352
0.000275988
0.000294599
0.000241404
0.000100795
1.3896e-05
2.70517e-06
2.20105e-06
2.76244e-06
4.29659e-06
6.6298e-06
9.69979e-06
1.36459e-05
1.78654e-05
1.95657e-05
1.9391e-05
1.83765e-05
1.5776e-05
1.12238e-05
6.35087e-06
4.12236e-06
3.76829e-06
3.63496e-06
3.46391e-06
3.48699e-06
3.91637e-06
5.25857e-06
7.81231e-06
1.17463e-05
1.70339e-05
2.35585e-05
3.09433e-05
3.77483e-05
5.34797e-05
4.83022e-20
1.44912e-19
3.38019e-19
1.22611e-18
4.07553e-18
8.76251e-18
2.94595e-17
1.6333e-16
1.35063e-15
1.45051e-14
1.60735e-13
1.49331e-12
8.4682e-12
2.82559e-11
3.83491e-11
1.88949e-11
7.87075e-12
3.18834e-12
1.28821e-12
6.66857e-13
9.55122e-13
3.28269e-12
1.36971e-11
5.93089e-11
2.70939e-10
1.23658e-09
4.61652e-09
1.05345e-08
1.15359e-08
5.5307e-09
2.49301e-09
1.16284e-09
9.44744e-10
2.36277e-09
7.86257e-09
2.78592e-08
9.9368e-08
3.14823e-07
8.70847e-07
2.09246e-06
4.12192e-06
6.43605e-06
7.73092e-06
8.99946e-06
1.40714e-05
2.28823e-05
2.27112e-05
1.36336e-05
7.08798e-06
3.38031e-06
1.57675e-06
7.76045e-07
8.67548e-07
2.35253e-06
6.157e-06
1.2407e-05
2.08743e-05
3.0969e-05
4.16697e-05
5.18259e-05
6.07749e-05
6.97663e-05
8.17225e-05
0.000100491
0.000130623
0.000186171
0.000291049
0.000431603
0.000479342
0.000453406
0.000300257
7.59746e-05
9.53643e-06
3.85169e-06
4.00836e-06
5.38217e-06
8.09518e-06
1.20405e-05
1.74327e-05
2.41349e-05
2.86648e-05
2.88026e-05
2.78789e-05
2.51982e-05
1.98694e-05
1.26622e-05
7.71186e-06
6.33384e-06
5.91782e-06
5.66549e-06
5.76028e-06
6.66665e-06
9.39364e-06
1.44019e-05
2.15234e-05
3.03135e-05
4.03367e-05
5.16173e-05
6.25184e-05
8.98417e-05
4.30129e-17
1.48784e-16
2.1782e-16
6.75238e-16
2.91535e-15
3.94535e-15
3.44182e-15
9.83854e-15
6.78262e-14
6.34802e-13
6.37533e-12
5.69741e-11
3.16323e-10
1.09531e-09
1.68369e-09
9.40044e-10
4.13595e-10
1.77183e-10
7.51734e-11
3.86384e-11
4.62146e-11
1.29706e-10
4.71926e-10
1.82773e-09
7.51178e-09
3.06602e-08
1.06887e-07
2.56636e-07
3.30411e-07
1.707e-07
8.05365e-08
3.56903e-08
1.6622e-08
1.37811e-08
3.15692e-08
9.85286e-08
3.43205e-07
1.11892e-06
3.23632e-06
8.58118e-06
1.955e-05
3.69164e-05
5.20625e-05
6.16516e-05
8.41616e-05
0.00013645
0.000215366
0.000217781
0.000136328
4.53728e-05
1.58204e-05
3.66013e-06
2.49029e-06
4.85697e-06
1.13326e-05
2.12519e-05
3.37811e-05
4.82533e-05
6.37911e-05
7.94031e-05
9.4386e-05
0.000109987
0.00013099
0.000166018
0.000225965
0.000325637
0.000451911
0.000542542
0.000558968
0.00054771
0.00048533
0.000269995
5.26039e-05
9.95493e-06
6.55593e-06
7.4185e-06
1.02503e-05
1.51562e-05
2.21638e-05
3.14498e-05
4.08069e-05
4.33617e-05
4.25432e-05
3.96093e-05
3.29168e-05
2.23149e-05
1.31999e-05
9.57396e-06
8.41085e-06
7.97422e-06
8.11825e-06
9.42155e-06
1.32508e-05
2.01518e-05
2.97578e-05
4.14849e-05
5.5051e-05
7.12353e-05
8.85696e-05
0.000133191
4.40398e-15
2.78841e-14
9.69546e-14
3.85809e-13
1.09365e-12
1.53954e-12
9.87302e-13
9.42007e-13
4.25272e-12
3.31543e-11
2.75126e-10
1.93007e-09
9.79444e-09
3.25379e-08
5.50505e-08
3.50927e-08
1.61384e-08
7.22955e-09
3.21316e-09
1.72391e-09
1.92068e-09
4.37824e-09
1.28568e-08
4.0473e-08
1.34842e-07
4.50586e-07
1.37774e-06
3.69997e-06
6.9904e-06
4.03582e-06
1.98072e-06
9.01817e-07
3.84458e-07
1.73432e-07
1.40505e-07
3.13212e-07
1.04059e-06
3.37088e-06
9.34585e-06
2.16129e-05
4.28773e-05
7.42388e-05
0.000110096
0.000143779
0.000189276
0.000249494
0.000305258
0.000401375
0.000396811
0.000297503
8.77718e-05
1.08405e-05
4.99365e-06
7.8193e-06
1.62265e-05
2.88894e-05
4.42388e-05
6.16779e-05
8.08395e-05
0.000101529
0.000123866
0.00015027
0.000189629
0.000259836
0.000370291
0.000486657
0.000559228
0.000576651
0.00057626
0.000570987
0.000549848
0.000475148
0.000233014
4.03734e-05
1.19522e-05
1.15653e-05
1.39153e-05
1.93258e-05
2.74855e-05
3.84704e-05
5.18741e-05
6.20488e-05
6.32493e-05
6.18877e-05
5.65124e-05
4.36445e-05
2.6669e-05
1.65912e-05
1.20847e-05
1.0504e-05
1.06166e-05
1.22552e-05
1.72354e-05
2.61772e-05
3.8437e-05
5.3321e-05
7.08716e-05
9.26325e-05
0.000117668
0.000181316
3.87772e-13
2.22588e-12
7.60625e-12
3.31369e-11
9.92182e-11
1.5964e-10
1.16749e-10
6.68135e-11
1.4443e-10
8.88871e-10
6.32339e-09
3.80751e-08
1.67733e-07
5.51324e-07
1.1768e-06
9.27597e-07
4.53697e-07
2.14641e-07
1.00053e-07
5.6229e-08
6.15921e-08
1.18393e-07
2.67435e-07
6.19204e-07
1.38275e-06
2.83734e-06
6.54169e-06
2.02601e-05
6.42707e-05
6.71633e-05
3.77253e-05
1.82289e-05
9.06622e-06
2.74674e-06
5.86033e-07
8.76041e-07
2.57682e-06
7.54972e-06
1.79464e-05
3.59117e-05
6.34561e-05
0.000101462
0.000145909
0.000191906
0.000246162
0.000306472
0.000347982
0.000380951
0.000413987
0.000394335
0.000217465
3.34844e-05
9.29573e-06
1.14712e-05
2.07637e-05
3.56779e-05
5.36491e-05
7.39777e-05
9.69785e-05
0.000123511
0.000155512
0.000198715
0.00026864
0.000383363
0.000510809
0.000577877
0.000580602
0.000568734
0.000558011
0.000556856
0.000548803
0.00051671
0.000401858
0.000115494
2.38323e-05
1.84759e-05
2.02853e-05
2.5838e-05
3.49607e-05
4.73059e-05
6.28662e-05
7.92755e-05
8.99913e-05
9.38979e-05
9.37914e-05
8.81962e-05
6.95602e-05
4.13652e-05
2.19767e-05
1.40695e-05
1.34885e-05
1.52499e-05
2.12388e-05
3.20183e-05
4.67805e-05
6.5059e-05
8.75629e-05
0.000116478
0.000152639
0.000237802
1.0089e-10
1.84181e-10
4.66513e-10
2.50841e-09
7.88196e-09
1.24091e-08
9.19416e-09
4.48565e-09
3.95558e-09
1.43029e-08
8.07678e-08
3.39415e-07
1.16751e-06
4.21192e-06
1.53552e-05
2.06641e-05
1.05038e-05
5.03259e-06
2.35462e-06
1.24024e-06
1.04851e-06
1.58813e-06
2.7849e-06
4.67765e-06
7.44318e-06
1.19694e-05
2.23326e-05
5.40407e-05
0.000126032
0.000272345
0.000298958
0.000200352
5.87174e-05
1.02374e-05
1.90994e-06
2.10204e-06
5.00812e-06
1.30111e-05
2.77752e-05
5.0647e-05
8.30489e-05
0.000126047
0.000175601
0.00022618
0.000284318
0.000342151
0.000378003
0.000397297
0.000406018
0.000392631
0.00030422
7.28719e-05
1.55874e-05
1.59316e-05
2.50593e-05
4.18302e-05
6.24257e-05
8.58196e-05
0.000113196
0.000147356
0.0001937
0.000262812
0.000370245
0.000504934
0.000583285
0.00058518
0.000569427
0.000524802
0.000513701
0.000520721
0.000524144
0.000503267
0.000426118
0.000160806
3.67725e-05
2.77655e-05
2.96032e-05
3.6017e-05
4.69471e-05
6.17128e-05
8.01873e-05
0.000100346
0.000118148
0.000134283
0.000147071
0.00014719
0.000140113
0.000110543
5.68565e-05
2.23168e-05
1.67711e-05
1.85261e-05
2.53707e-05
3.80364e-05
5.56382e-05
7.78958e-05
0.000106207
0.000143224
0.000194154
0.000298587
1.21838e-08
2.93499e-08
6.25848e-08
2.01809e-07
4.73756e-07
7.05321e-07
5.71407e-07
2.74388e-07
1.52118e-07
2.0924e-07
5.83102e-07
1.51701e-06
4.43479e-06
1.52768e-05
4.85021e-05
0.000132476
0.000152668
9.20489e-05
2.99806e-05
1.2109e-05
7.87559e-06
9.64007e-06
1.55251e-05
2.49449e-05
3.51582e-05
4.59663e-05
6.5444e-05
0.000114379
0.000212306
0.000313955
0.000423497
0.000405028
0.000242915
4.92626e-05
6.44074e-06
4.65128e-06
8.57459e-06
1.98893e-05
3.90775e-05
6.65836e-05
0.000103786
0.00015334
0.000211428
0.000267315
0.000327833
0.000378378
0.000397432
0.000403325
0.000402547
0.000388956
0.000334492
0.000121848
2.31632e-05
2.09445e-05
2.96557e-05
4.81791e-05
7.1611e-05
9.86408e-05
0.000131754
0.000176754
0.000244256
0.000347187
0.000481517
0.000580966
0.00059076
0.000576598
0.000537709
0.000468048
0.0004596
0.000476324
0.000497107
0.000480585
0.00040642
0.000151278
4.61074e-05
3.98743e-05
4.30413e-05
5.23741e-05
6.6944e-05
8.56915e-05
0.000108412
0.000132762
0.0001554
0.000177238
0.000196262
0.00019946
0.000196999
0.000182403
0.00012608
4.69028e-05
2.18973e-05
2.26201e-05
2.97275e-05
4.42653e-05
6.50982e-05
9.2097e-05
0.000127416
0.000174154
0.000244502
0.000363559
5.74103e-07
2.35309e-06
3.36989e-06
7.55384e-06
1.71445e-05
3.23618e-05
3.74764e-05
2.15614e-05
9.86921e-06
5.08043e-06
4.19225e-06
6.09062e-06
1.20455e-05
3.29951e-05
8.57218e-05
0.000180749
0.0003051
0.00029426
0.000218219
7.7029e-05
2.99987e-05
3.48443e-05
5.78553e-05
9.77925e-05
0.000132577
0.000152829
0.000181226
0.000247571
0.000343578
0.000396314
0.000409828
0.000407179
0.00035784
0.000142526
1.78215e-05
9.11125e-06
1.39529e-05
2.87635e-05
5.26992e-05
8.50322e-05
0.000127788
0.000186869
0.000254469
0.000312558
0.000372817
0.000402236
0.000402893
0.000401305
0.000398873
0.000387561
0.000342879
0.000167832
3.24485e-05
2.60676e-05
3.48382e-05
5.51094e-05
8.16918e-05
0.000113337
0.000154431
0.000215328
0.000312227
0.000446626
0.000567779
0.000596044
0.000585995
0.000552618
0.00049746
0.00040042
0.000358278
0.000383395
0.000441982
0.000440093
0.000358722
0.000128228
5.72343e-05
5.57674e-05
6.28792e-05
7.79426e-05
9.74811e-05
0.000120074
0.0001453
0.000170526
0.000193094
0.00021198
0.00022421
0.000226507
0.000225341
0.000217531
0.0001827
8.67901e-05
3.09852e-05
2.79741e-05
3.45709e-05
5.08541e-05
7.54134e-05
0.000107939
0.000151392
0.000209645
0.000303993
0.000433678
6.67503e-05
0.000223967
0.000319669
0.000425687
0.000454823
0.000433473
0.000392734
0.000400907
0.000341709
0.000157274
3.27916e-05
2.34756e-05
3.43613e-05
7.10915e-05
0.000147214
0.000237561
0.000300641
0.000303713
0.000275742
0.000165919
8.82335e-05
0.000104978
0.000181421
0.000317314
0.000413282
0.000420277
0.000430125
0.000447588
0.000437076
0.000422732
0.000421158
0.000411081
0.000371753
0.000217138
3.45885e-05
1.56778e-05
2.13187e-05
3.9691e-05
6.85794e-05
0.000106136
0.000155928
0.00022623
0.000300564
0.000363105
0.000408413
0.00040899
0.000394152
0.000358988
0.000358593
0.000362129
0.00033013
0.000194391
4.22059e-05
3.16649e-05
4.08976e-05
6.32933e-05
9.36835e-05
0.000131583
0.00018436
0.00026818
0.000397116
0.00053769
0.000596852
0.000593334
0.000571401
0.000532345
0.000458195
0.000330156
0.000232185
0.000232231
0.000252614
0.000234555
0.000151537
7.58192e-05
6.75401e-05
7.50054e-05
9.30947e-05
0.000115081
0.000137009
0.000158143
0.000178094
0.000196135
0.000211857
0.000223852
0.000231501
0.000234842
0.000234593
0.000229252
0.000208287
0.00012977
4.5095e-05
3.42446e-05
4.03434e-05
5.81634e-05
8.69456e-05
0.000125958
0.000179182
0.000251761
0.000374582
0.000511756
8.77192e-06
3.82696e-05
7.18009e-05
8.77367e-05
9.36138e-05
0.000104203
0.000128883
0.000216865
0.000290446
0.000243495
0.000104224
6.92066e-05
8.40182e-05
0.00013931
0.000217919
0.000280932
0.000328864
0.000329285
0.000301108
0.000187301
0.000150913
0.00020343
0.000353557
0.000498775
0.000525493
0.000513729
0.00047513
0.000426439
0.000414109
0.000415461
0.000425512
0.000419758
0.000387488
0.000266456
5.31891e-05
2.4219e-05
3.09793e-05
5.31305e-05
8.70705e-05
0.000130576
0.000188972
0.000267672
0.000349536
0.000410801
0.000421223
0.000400844
0.000325867
0.000257311
0.000268396
0.000307831
0.000298934
0.000187931
4.85768e-05
3.77023e-05
4.80045e-05
7.31459e-05
0.000108414
0.000155124
0.000225043
0.000337582
0.000485982
0.000586299
0.000595743
0.000582642
0.000557253
0.000523853
0.000440306
0.000274668
0.000151439
0.000102266
8.0439e-05
7.42168e-05
6.98396e-05
7.11273e-05
8.3032e-05
0.000107601
0.000134857
0.000155593
0.000169854
0.000180863
0.000191212
0.00020222
0.000213938
0.000224027
0.000231366
0.000236873
0.00023738
0.000233912
0.000219061
0.000162085
6.30308e-05
4.17042e-05
4.71594e-05
6.64145e-05
9.98349e-05
0.00014634
0.000211336
0.000301893
0.000455459
0.000594581
1.02131e-06
4.95976e-06
1.0159e-05
1.50196e-05
2.12369e-05
3.1467e-05
6.13965e-05
0.000164096
0.000290072
0.000272617
0.000183748
0.000151715
0.000172644
0.000223549
0.000251494
0.000289382
0.00034704
0.000313916
0.000229201
0.000188061
0.000213558
0.000327308
0.000465457
0.000494471
0.000478621
0.000427238
0.000371497
0.000383435
0.000431039
0.000392993
0.00037397
0.000391049
0.000373358
0.000281091
6.91584e-05
3.4529e-05
4.29732e-05
6.94487e-05
0.000108993
0.000160091
0.000227183
0.000311699
0.000398803
0.000439055
0.00042836
0.000343491
0.000213317
0.000180404
0.000196616
0.000249704
0.000260134
0.00016905
5.18265e-05
4.40437e-05
5.6353e-05
8.53e-05
0.00012718
0.000186602
0.000279923
0.000417887
0.000552372
0.000589874
0.000584639
0.00056758
0.000552502
0.000528202
0.000441454
0.000254053
0.000113354
6.8598e-05
6.32335e-05
6.44519e-05
6.92613e-05
8.46392e-05
0.000116306
0.000150002
0.000169801
0.000175394
0.000178553
0.000182427
0.000188819
0.000198906
0.000213448
0.000225333
0.000231366
0.000236361
0.000237911
0.000236088
0.000225229
0.000183613
8.22555e-05
5.02076e-05
5.50367e-05
7.57846e-05
0.000114421
0.000169821
0.00024947
0.000362096
0.000543654
0.000674678
1.11625e-07
6.41447e-07
1.68945e-06
3.23178e-06
5.77756e-06
1.18338e-05
3.39218e-05
0.00011009
0.000260213
0.000294762
0.000258082
0.000233933
0.00022863
0.00021919
0.000204618
0.000262984
0.000364333
0.000336597
0.000263686
0.000260349
0.000329636
0.000425109
0.000446544
0.000403493
0.000314113
0.000282509
0.000307595
0.000415157
0.000452475
0.000340812
0.000270412
0.000318151
0.000340683
0.000261937
7.35259e-05
4.55957e-05
5.74198e-05
8.95609e-05
0.000135731
0.000195936
0.000267842
0.000355544
0.000439992
0.000457567
0.000421212
0.000267861
0.000150329
0.000143017
0.000158429
0.000208455
0.00022226
0.000144337
5.39192e-05
5.06743e-05
6.61682e-05
0.00010033
0.000151589
0.000229631
0.000349976
0.000495133
0.000572822
0.000574938
0.000562299
0.000559569
0.000566779
0.000560319
0.000491314
0.000276059
0.000112321
7.70224e-05
7.15208e-05
7.30219e-05
8.35944e-05
0.000113444
0.000152007
0.00016949
0.000171353
0.000172375
0.000174028
0.000178805
0.000190987
0.000211046
0.000229947
0.000231184
0.000223852
0.000219784
0.000223435
0.000228414
0.000222136
0.000195601
0.000102867
5.98518e-05
6.3981e-05
8.63634e-05
0.000130956
0.000197219
0.000295457
0.000433727
0.000632918
0.000744158
1.5431e-08
1.0637e-07
3.47044e-07
8.23983e-07
1.80714e-06
4.70066e-06
1.47163e-05
4.95816e-05
0.00013833
0.000244277
0.000244081
0.000229545
0.000209219
0.000156008
0.000135387
0.000213742
0.000363203
0.000380621
0.000359797
0.000363228
0.000391106
0.000401199
0.000343443
0.000235344
0.000206742
0.000233561
0.000322516
0.000457536
0.000459046
0.000299506
0.000164392
0.000211602
0.000280205
0.000210426
6.82676e-05
5.69579e-05
7.53405e-05
0.000115554
0.000171184
0.000241023
0.000314751
0.000399783
0.000471979
0.000476142
0.000417614
0.000209771
0.00012312
0.000123357
0.000140025
0.000184884
0.000191537
0.000120093
5.60038e-05
5.75779e-05
7.8111e-05
0.000119426
0.000184319
0.000287187
0.00042814
0.000542721
0.000561441
0.000551821
0.000548498
0.000561735
0.000591798
0.000593199
0.000547908
0.000378868
0.000169768
0.000103234
9.41768e-05
9.65779e-05
0.000113159
0.000147709
0.00016749
0.000168404
0.000168789
0.000171515
0.000178743
0.000193786
0.000221318
0.000240105
0.000236694
0.000221316
0.000185719
0.000175157
0.000180891
0.000199705
0.000209178
0.000192118
0.000122076
7.092e-05
7.4064e-05
9.84724e-05
0.000150258
0.000230303
0.000351906
0.000516114
0.000714368
0.000797579
3.67045e-09
2.27899e-08
8.74824e-08
2.7655e-07
7.6445e-07
2.03084e-06
5.61532e-06
1.68131e-05
4.50764e-05
0.000119538
0.000190142
0.000164145
0.000120441
7.11404e-05
8.19957e-05
0.000143856
0.000260838
0.000345893
0.00035385
0.000356267
0.000350234
0.000289805
0.000187352
0.000161177
0.000186156
0.00024691
0.000342865
0.000469001
0.000473948
0.000277782
0.000101272
0.000101991
0.000134384
0.000105254
6.32281e-05
7.01524e-05
0.000101099
0.000152744
0.000220888
0.000295767
0.000366493
0.000436636
0.000498988
0.000498586
0.0004173
0.00017889
0.000107588
0.000111598
0.000133363
0.000171463
0.00016707
9.6812e-05
5.89282e-05
6.5728e-05
9.29753e-05
0.000144802
0.000229748
0.000359283
0.000496736
0.000545177
0.000538135
0.000527829
0.000535214
0.000564911
0.000608826
0.000618259
0.00058867
0.000472331
0.000255367
0.000149173
0.000130829
0.000132937
0.000149277
0.000167244
0.000168545
0.000169828
0.00017687
0.000189526
0.000212988
0.000246998
0.000258516
0.000250667
0.000223647
0.000175481
0.000143075
0.00014081
0.000145507
0.000163245
0.000189054
0.000183049
0.00013403
8.27633e-05
8.53185e-05
0.000112624
0.000173509
0.000271233
0.000420376
0.000604429
0.000780601
0.000832813
9.77362e-09
6.90945e-08
2.42504e-07
5.75611e-07
1.15091e-06
2.08397e-06
3.73578e-06
7.84865e-06
1.45088e-05
2.97233e-05
6.32958e-05
5.14027e-05
3.89365e-05
3.91693e-05
5.42935e-05
8.68076e-05
0.000155243
0.000239832
0.000280538
0.000274563
0.000218647
0.000150399
0.00013009
0.000147003
0.000187605
0.000238586
0.000317459
0.000448734
0.000506697
0.000281408
9.33472e-05
6.67917e-05
6.76088e-05
6.71534e-05
7.0561e-05
9.40541e-05
0.000140697
0.000209309
0.0002873
0.000357253
0.000404292
0.000458212
0.000522848
0.000521879
0.000432803
0.000165893
9.47054e-05
0.000103095
0.000132316
0.000158899
0.000142291
7.84397e-05
6.36157e-05
7.5694e-05
0.000112727
0.000180136
0.000292573
0.000438383
0.000524872
0.00052582
0.000508186
0.000507827
0.000527212
0.000570546
0.00061663
0.000633114
0.000617652
0.000549602
0.000364078
0.000222773
0.000181587
0.000174777
0.000175894
0.000177057
0.000179901
0.000190496
0.000218033
0.000258465
0.000293113
0.000293895
0.000277766
0.000231009
0.000169407
0.000137406
0.000129472
0.000129811
0.000132688
0.000143586
0.000170102
0.000172764
0.000138579
9.4047e-05
9.7527e-05
0.000129498
0.000202415
0.000322744
0.000500614
0.000691541
0.00082509
0.000851367
7.14386e-08
4.26889e-07
1.26845e-06
2.58059e-06
4.65308e-06
7.79109e-06
1.09904e-05
1.27747e-05
1.44317e-05
1.79058e-05
2.50559e-05
2.8951e-05
3.3218e-05
3.91809e-05
4.62872e-05
5.91952e-05
8.1714e-05
0.000110896
0.000137348
0.000131096
0.000110356
0.000107929
0.000118604
0.00013921
0.000169978
0.000209745
0.000279587
0.000395149
0.000531791
0.0003853
0.000130636
7.63967e-05
7.1776e-05
7.53613e-05
9.48606e-05
0.000137028
0.000205657
0.000292182
0.000367467
0.000399389
0.000416701
0.000467928
0.000538609
0.000543981
0.000459314
0.000167101
8.20305e-05
9.3844e-05
0.000128255
0.00014272
0.000116442
7.00689e-05
6.96556e-05
8.95973e-05
0.000139802
0.000230767
0.000371374
0.000496555
0.000514612
0.000494348
0.000483158
0.000493849
0.000527987
0.000574855
0.000618306
0.000638512
0.000636449
0.000601282
0.000470404
0.000315353
0.000240064
0.000209415
0.000198692
0.000201324
0.000219221
0.000262994
0.00032199
0.000353976
0.000351713
0.000323768
0.000254158
0.000172756
0.000135826
0.00012691
0.000126189
0.00012682
0.000128947
0.000136282
0.000157648
0.000162882
0.00013753
0.0001039
0.00011063
0.000149943
0.000239116
0.000386898
0.000588809
0.000768205
0.000846369
0.000856421
6.66561e-07
3.02533e-06
7.06869e-06
1.23293e-05
1.90543e-05
2.64656e-05
3.14467e-05
3.34774e-05
3.5668e-05
3.64644e-05
3.94543e-05
4.59401e-05
5.05437e-05
5.49489e-05
5.69914e-05
5.97351e-05
6.4697e-05
7.34788e-05
8.27748e-05
8.9411e-05
9.48187e-05
0.000102587
0.000108961
0.000118419
0.000137131
0.000167989
0.000231175
0.0003349
0.000520066
0.000482912
0.000223722
0.000112871
9.68906e-05
0.000106831
0.000145877
0.000215126
0.000308526
0.000388229
0.000399407
0.000397024
0.000417749
0.000477638
0.000545788
0.000563465
0.000487855
0.000181164
7.21769e-05
8.02928e-05
0.000113312
0.000119953
9.06124e-05
6.90615e-05
7.74524e-05
0.000109834
0.000179229
0.000301238
0.000451183
0.00050327
0.000485304
0.000461946
0.000466123
0.000490234
0.000531355
0.000573365
0.00061076
0.000637437
0.000645585
0.000633116
0.000558387
0.00041732
0.000307064
0.0002554
0.0002498
0.000266249
0.000312272
0.000376077
0.000420842
0.000421525
0.000392443
0.000306696
0.000193501
0.000139411
0.000127328
0.000125508
0.000125555
0.000126118
0.000128109
0.000134567
0.000151265
0.000154699
0.000134423
0.000112589
0.000125178
0.000175
0.000286128
0.000464241
0.000677642
0.000821057
0.000849278
0.000848631
4.6488e-06
1.75066e-05
3.2608e-05
4.49794e-05
5.56703e-05
6.41576e-05
6.83568e-05
7.06882e-05
7.41818e-05
7.56868e-05
7.69569e-05
7.86092e-05
7.88223e-05
7.92822e-05
7.88434e-05
7.91872e-05
8.01035e-05
8.28639e-05
8.74488e-05
9.11602e-05
9.29061e-05
9.44312e-05
9.03573e-05
9.14359e-05
0.000103134
0.000127035
0.000177738
0.000261541
0.000418649
0.000533694
0.000355413
0.000193971
0.0001629
0.000184503
0.000249728
0.00034681
0.000407945
0.000401683
0.000377092
0.000383858
0.000421025
0.000477678
0.000537438
0.00057583
0.000522851
0.000223655
6.9163e-05
6.53138e-05
8.15534e-05
8.62403e-05
7.27814e-05
7.29095e-05
9.03619e-05
0.000140946
0.000238459
0.000389858
0.000490763
0.000482357
0.000446352
0.000442347
0.000458774
0.000493046
0.000530015
0.00056256
0.000593384
0.000625313
0.000647696
0.000652671
0.000622855
0.000529013
0.000418297
0.000358306
0.000355293
0.000382726
0.000433005
0.000480481
0.000496075
0.000478632
0.000399664
0.000252685
0.000155799
0.000130978
0.000126918
0.00012681
0.000126563
0.000126921
0.000128781
0.000134879
0.000146895
0.000147803
0.000129868
0.000121138
0.000140791
0.000208079
0.000346392
0.000552578
0.000755804
0.00084051
0.000841826
0.000827524
6.84306e-06
2.89172e-05
5.22541e-05
6.94377e-05
8.12932e-05
9.02261e-05
9.28465e-05
9.36004e-05
9.31608e-05
9.27519e-05
9.33614e-05
9.39373e-05
9.4573e-05
9.45605e-05
9.37806e-05
9.20733e-05
8.98589e-05
8.82981e-05
8.76829e-05
8.64538e-05
8.35123e-05
7.66542e-05
6.88382e-05
7.01416e-05
7.97535e-05
9.63244e-05
0.000128374
0.000181382
0.000297783
0.000476219
0.000463273
0.000369613
0.000329661
0.000359175
0.000417028
0.000429252
0.000394974
0.000347094
0.000344979
0.000372094
0.000413509
0.000454036
0.000504734
0.000576984
0.000559138
0.000307731
7.83004e-05
6.04931e-05
6.32799e-05
6.7383e-05
7.09236e-05
8.16457e-05
0.000116611
0.000193086
0.000329402
0.000472946
0.000482558
0.00043847
0.000421507
0.000432914
0.00046081
0.000492438
0.000519655
0.000543517
0.000571166
0.000607317
0.000642391
0.000659652
0.000659154
0.000629577
0.00056933
0.000515191
0.000508161
0.000522302
0.000549262
0.000569807
0.000567427
0.000519514
0.000373867
0.000211272
0.000143325
0.000134578
0.000134259
0.000132716
0.00012953
0.000128165
0.000129162
0.000133334
0.000140473
0.000139403
0.000127179
0.000130593
0.000162236
0.000253371
0.000424687
0.000648832
0.000808591
0.000839247
0.000823651
0.000789882
7.57132e-07
5.0001e-06
1.16057e-05
1.94022e-05
2.84718e-05
3.65442e-05
4.24698e-05
4.83747e-05
5.37749e-05
6.07157e-05
6.64654e-05
7.07048e-05
7.29483e-05
7.32433e-05
7.19899e-05
7.00863e-05
6.924e-05
6.88761e-05
6.81845e-05
6.43335e-05
5.76933e-05
5.40739e-05
5.48577e-05
6.04501e-05
6.98883e-05
8.04442e-05
9.56383e-05
0.000121328
0.000179478
0.000302
0.000458678
0.000489372
0.00045993
0.000439174
0.000407196
0.000348656
0.000299437
0.000295569
0.000317833
0.000348719
0.000376173
0.000403764
0.000452306
0.000552138
0.00059198
0.000448754
0.00011748
6.84704e-05
6.7114e-05
7.09962e-05
7.90992e-05
0.000105263
0.000167494
0.000288986
0.000451683
0.000487217
0.00043788
0.000403773
0.000411299
0.000434314
0.000460443
0.000481794
0.000498301
0.000517184
0.000546925
0.000588483
0.000630232
0.000659293
0.000670523
0.000671842
0.000665052
0.000646162
0.000638157
0.000637519
0.000645209
0.000650505
0.000634471
0.000544497
0.000354323
0.000198584
0.000162869
0.000156525
0.000152499
0.000144297
0.000134613
0.000129224
0.000128443
0.000129173
0.000130823
0.000130161
0.000129207
0.000143234
0.000195085
0.000318687
0.000524731
0.000741053
0.00082583
0.000826551
0.000786545
0.000734702
5.08609e-08
4.35495e-07
1.18129e-06
2.21175e-06
3.59685e-06
5.36035e-06
7.25832e-06
9.60248e-06
1.25337e-05
1.62769e-05
1.96836e-05
2.24364e-05
2.43035e-05
2.56816e-05
2.64461e-05
2.77609e-05
2.97685e-05
3.20857e-05
3.42454e-05
3.62851e-05
3.8665e-05
4.356e-05
5.16637e-05
6.08637e-05
6.89346e-05
7.66903e-05
8.54503e-05
9.6214e-05
0.000115369
0.000156002
0.000214936
0.000299685
0.000311411
0.000290743
0.000257687
0.000234159
0.000238625
0.000255646
0.000279713
0.000297124
0.000311601
0.00033526
0.000386062
0.000484739
0.000601037
0.000556895
0.000247027
0.000101868
8.57488e-05
8.97603e-05
0.00010957
0.000166242
0.000280578
0.000445978
0.000498337
0.000443598
0.000389928
0.000393033
0.000411774
0.000432691
0.000447426
0.000456078
0.000465993
0.000486765
0.000524527
0.000572223
0.000615183
0.000647737
0.000670482
0.000682936
0.000693064
0.000697092
0.000706845
0.000717228
0.000728127
0.000726869
0.000697176
0.000578362
0.00039427
0.000278423
0.000237907
0.000222678
0.000204734
0.000173169
0.000145655
0.00013356
0.000129408
0.00012852
0.000128966
0.000130493
0.000136471
0.000163782
0.000247941
0.000411864
0.000640484
0.000800746
0.000819664
0.000795436
0.000724505
0.000664051
3.2458e-09
2.99007e-08
9.11819e-08
1.95263e-07
3.53923e-07
5.96363e-07
8.89892e-07
1.29111e-06
1.84699e-06
2.54341e-06
3.28598e-06
4.05717e-06
4.85244e-06
5.75335e-06
6.88442e-06
8.73568e-06
1.09137e-05
1.38806e-05
1.962e-05
2.7886e-05
3.83248e-05
5.08949e-05
6.45668e-05
7.33957e-05
7.73382e-05
8.12989e-05
8.60529e-05
9.27922e-05
0.000101404
0.000112638
0.000125663
0.000142349
0.000156383
0.000165995
0.000176242
0.000187299
0.000199263
0.000210581
0.000223073
0.000228456
0.000239682
0.000265406
0.000315021
0.000396856
0.000537436
0.000596804
0.000421228
0.000219002
0.000153907
0.00015752
0.000210873
0.000324686
0.000468367
0.000504026
0.000448283
0.00038006
0.000378304
0.000392164
0.000407654
0.000413269
0.000412787
0.000413959
0.000425678
0.000457284
0.000507067
0.000559343
0.000600029
0.000630345
0.000656166
0.00067873
0.000702321
0.000727257
0.000760372
0.000785716
0.000797702
0.000795093
0.000768
0.00066976
0.000533927
0.000452861
0.000421552
0.000393587
0.000342281
0.000253632
0.000176192
0.000144906
0.000135529
0.000132341
0.000132549
0.000135827
0.000152705
0.000206502
0.000332542
0.000538198
0.000750125
0.000813335
0.000793753
0.000728532
0.000640192
0.000584425
1.94989e-10
1.91713e-09
6.6705e-09
1.64868e-08
3.29365e-08
6.10459e-08
1.01214e-07
1.67829e-07
2.72927e-07
4.1208e-07
5.846e-07
8.08402e-07
1.13011e-06
1.66636e-06
2.47513e-06
4.73485e-06
9.53976e-06
1.68726e-05
2.75483e-05
4.16579e-05
5.82587e-05
7.34081e-05
8.27125e-05
8.61409e-05
8.84217e-05
9.35586e-05
0.000100366
0.000107019
0.000114731
0.000119266
0.000126031
0.000135001
0.000144987
0.000155114
0.000163243
0.00016961
0.000171758
0.000172045
0.000173067
0.00017644
0.000188668
0.000212525
0.000252302
0.000313058
0.000413147
0.000552073
0.000537122
0.000449094
0.000365794
0.00037047