/*--------------------------------*- C++ -*----------------------------------*\
| =========                 |                                                 |
| \\      /  F ield         | OpenFOAM: The Open Source CFD Toolbox           |
|  \\    /   O peration     | Version:  2.3.0                                 |
|   \\  /    A nd           | Web:      www.OpenFOAM.org                      |
|    \\/     M anipulation  |                                                 |
\*---------------------------------------------------------------------------*/
FoamFile
{
    version     2.0;
    format      ascii;
    class       volScalarField;
    location    "0.03";
    object      Z;
}
// * * * * * * * * * * * * * * * * * * * * * * * * * * * * * * * * * * * * * //

dimensions      [0 0 0 0 0 0 0];

internalField   nonuniform List<scalar> 
5000
(
1
1
1
1
1
1
1
1
1
1
1
1
1
1
1
1
1
1
1
1
1
1
1
1
1
1
1
1
1
1
1
1
1
1
1
1
1
1
1
1
1
1
1
1
1
1
1
1
1
1
0.999999
0.999996
0.999986
0.999963
0.999925
0.999885
0.999832
0.999758
0.999658
0.999523
0.999335
0.999061
0.998678
0.998145
0.997431
0.996497
0.995857
0.99629
0.997171
0.998094
0.998919
0.999446
0.999657
0.99959
0.999336
0.998743
0.997773
0.996429
0.995522
0.995577
0.995939
0.996363
0.996843
0.997774
0.998774
0.999297
0.999378
0.999388
0.999387
0.999375
0.999347
0.999288
0.999187
0.999038
0.998806
0.998453
0.997939
0.99723
0.996298
0.993929
1
1
1
1
1
1
1
1
1
1
1
1
1
1
1
1
1
1
1
1
1
1
1
1
1
1
1
1
1
1
1
1
1
1
1
1
1
0.999999
0.999998
0.999997
0.999994
0.999993
0.999993
0.999992
0.999989
0.999987
0.999991
0.999995
0.999997
0.999997
0.999992
0.999978
0.999933
0.999782
0.99948
0.99903
0.998433
0.997729
0.996946
0.996055
0.994927
0.993275
0.990667
0.986472
0.979852
0.967159
0.94387
0.931439
0.94213
0.964177
0.984254
0.996688
0.998907
0.998783
0.998117
0.996855
0.995105
0.992852
0.990195
0.988269
0.988112
0.988533
0.989931
0.992568
0.995702
0.997604
0.99799
0.99797
0.997964
0.998023
0.998132
0.998087
0.997808
0.997187
0.996154
0.994688
0.992757
0.990494
0.988004
0.983112
1
1
1
1
1
1
1
1
1
1
1
1
1
1
1
1
1
1
1
1
1
1
1
1
1
1
1
1
1
1
1
1
1
1
0.999999
0.999998
0.999993
0.999982
0.999958
0.999915
0.999859
0.999813
0.999797
0.999764
0.999658
0.999576
0.999684
0.999821
0.999904
0.999947
0.999957
0.999921
0.999802
0.999357
0.998316
0.996576
0.993908
0.990497
0.986881
0.983489
0.980138
0.975665
0.96837
0.956341
0.937941
0.908494
0.858145
0.791622
0.790214
0.833798
0.9341
0.991173
0.997795
0.997918
0.997234
0.995644
0.993423
0.990692
0.987362
0.98373
0.981878
0.981929
0.982672
0.984853
0.988904
0.993286
0.995172
0.995335
0.995397
0.995594
0.995669
0.995398
0.994387
0.99231
0.988916
0.984185
0.978269
0.971645
0.965688
0.952819
1
1
1
1
1
1
1
1
1
1
1
1
1
1
1
1
1
1
1
1
1
1
1
1
1
0.999999
0.999998
0.999996
0.999995
0.999998
0.999999
1
1
0.999999
0.999995
0.999983
0.999939
0.999811
0.999502
0.998865
0.997896
0.996931
0.996499
0.996071
0.994059
0.990638
0.991726
0.995075
0.997389
0.998721
0.999381
0.999609
0.999419
0.998211
0.995241
0.990291
0.983453
0.975165
0.966269
0.95769
0.949815
0.941238
0.929056
0.909848
0.881794
0.83948
0.77039
0.682505
0.668239
0.695288
0.813297
0.956187
0.993727
0.996604
0.996259
0.994791
0.992281
0.98898
0.98479
0.979677
0.97573
0.975336
0.975866
0.977715
0.981786
0.987576
0.991487
0.992369
0.992591
0.992876
0.992873
0.992274
0.990218
0.986129
0.979879
0.971775
0.962365
0.951976
0.942378
0.920732
1
1
1
1
1
1
1
1
1
1
1
1
1
0.999999
0.999999
0.999999
1
1
1
1
1
1
1
0.999999
0.999997
0.999987
0.999954
0.999894
0.999869
0.999933
0.999968
0.999986
0.999993
0.999993
0.999982
0.999939
0.999786
0.999302
0.998035
0.994796
0.987883
0.976961
0.968576
0.964411
0.95131
0.91031
0.872998
0.889392
0.942331
0.975649
0.990832
0.998216
0.998352
0.996184
0.99076
0.982453
0.971684
0.95889
0.944777
0.930187
0.915719
0.900226
0.879839
0.849888
0.808635
0.749396
0.663338
0.575964
0.563943
0.580924
0.668978
0.854425
0.974683
0.993279
0.994327
0.99336
0.990779
0.986791
0.981463
0.974637
0.967702
0.965565
0.966041
0.967942
0.972562
0.980208
0.986772
0.989094
0.989741
0.990154
0.990107
0.989214
0.986322
0.980675
0.972176
0.961243
0.948479
0.933904
0.919335
0.886829
1
1
1
1
1
1
1
1
1
1
1
0.999998
0.999991
0.999972
0.999955
0.999972
0.999987
0.999994
0.999997
0.999999
0.999999
0.999997
0.999993
0.999981
0.999939
0.999797
0.999366
0.998359
0.997362
0.998452
0.99924
0.999655
0.999852
0.999929
0.999924
0.999806
0.999347
0.99787
0.993985
0.985636
0.970198
0.945806
0.918062
0.894321
0.857284
0.788694
0.690937
0.630213
0.673445
0.818984
0.961681
0.99523
0.99665
0.993746
0.986286
0.975294
0.961577
0.945375
0.926901
0.906332
0.883927
0.858769
0.826676
0.780959
0.718529
0.639198
0.553404
0.511542
0.514109
0.525808
0.564009
0.690471
0.887762
0.980208
0.990835
0.990484
0.988226
0.98388
0.97773
0.969735
0.960173
0.953054
0.952297
0.953299
0.957155
0.966058
0.977334
0.983949
0.986397
0.987386
0.987346
0.986183
0.982346
0.97492
0.963981
0.950157
0.934067
0.915492
0.895771
0.85402
1
1
1
1
1
1
1
1
1
0.999999
0.999994
0.999965
0.999848
0.999511
0.999044
0.999286
0.99965
0.999833
0.999921
0.999956
0.999957
0.999928
0.999855
0.99969
0.999302
0.998531
0.996407
0.988242
0.964122
0.970018
0.984605
0.992901
0.996762
0.998869
0.999671
0.999449
0.998315
0.99496
0.987715
0.974482
0.952537
0.919235
0.877788
0.834173
0.772401
0.680178
0.581734
0.519144
0.530719
0.620216
0.869951
0.985477
0.993839
0.990869
0.982025
0.96864
0.952103
0.932484
0.909377
0.882351
0.851302
0.815464
0.769146
0.702464
0.614693
0.527023
0.491669
0.494269
0.505216
0.514176
0.530332
0.586085
0.745748
0.942376
0.9839
0.985511
0.983818
0.97941
0.97268
0.963838
0.952807
0.941277
0.934338
0.932981
0.933785
0.939059
0.952405
0.969224
0.980005
0.984265
0.984486
0.98313
0.978387
0.969318
0.956144
0.939489
0.919723
0.896508
0.869711
0.820941
0.999999
0.999999
0.999999
0.999996
0.99999
0.999985
0.999989
0.999994
0.999994
0.999983
0.99992
0.999701
0.998844
0.995784
0.986068
0.985995
0.992819
0.996516
0.998353
0.999115
0.999323
0.999088
0.998545
0.997604
0.996196
0.993766
0.987411
0.964596
0.895262
0.795684
0.821124
0.907762
0.974707
0.995101
0.998982
0.998694
0.996611
0.990946
0.98014
0.962283
0.934416
0.892501
0.83848
0.777276
0.688432
0.574639
0.503894
0.482066
0.490727
0.540222
0.735841
0.959404
0.989405
0.987365
0.977969
0.962409
0.942944
0.919716
0.8917
0.857689
0.81697
0.767994
0.703599
0.613087
0.510615
0.470364
0.47912
0.517035
0.575916
0.57745
0.575337
0.598205
0.681288
0.899275
0.974881
0.97913
0.977501
0.972596
0.964757
0.954419
0.941484
0.927264
0.914904
0.904732
0.900026
0.901305
0.908712
0.929816
0.960497
0.978969
0.981409
0.979937
0.974351
0.963581
0.948001
0.928304
0.904621
0.87652
0.841274
0.792239
0.999932
0.99991
0.999874
0.99971
0.999442
0.999245
0.999397
0.999693
0.999812
0.999777
0.999509
0.998778
0.995505
0.984087
0.946032
0.875236
0.887484
0.944084
0.97803
0.99102
0.995749
0.995239
0.992693
0.988103
0.982962
0.977023
0.963571
0.925318
0.823758
0.654361
0.601707
0.676929
0.868907
0.981147
0.997119
0.997221
0.994091
0.985733
0.971105
0.948354
0.913583
0.859134
0.783803
0.696531
0.578901
0.493363
0.477955
0.488586
0.49602
0.525171
0.637222
0.907374
0.9826
0.982834
0.973663
0.955912
0.933152
0.905804
0.872229
0.830178
0.77737
0.711561
0.626595
0.516585
0.449236
0.456034
0.495081
0.607164
0.697951
0.69357
0.668894
0.668739
0.729175
0.908375
0.968374
0.971116
0.968529
0.961701
0.951569
0.938676
0.922882
0.905709
0.889781
0.874591
0.862884
0.862261
0.865198
0.878794
0.91817
0.964473
0.977447
0.976334
0.970165
0.957704
0.939557
0.916469
0.888314
0.854818
0.811144
0.768274
0.996564
0.994107
0.993587
0.989851
0.981762
0.969076
0.964929
0.97991
0.99047
0.994982
0.996508
0.995665
0.989443
0.968705
0.905539
0.76184
0.661995
0.703652
0.838623
0.957632
0.985521
0.984017
0.975017
0.957988
0.941186
0.928184
0.905373
0.841805
0.696492
0.551124
0.524985
0.556919
0.685879
0.921419
0.991467
0.994454
0.990339
0.978819
0.959703
0.931092
0.88685
0.81186
0.703829
0.586126
0.480417
0.472046
0.499964
0.574369
0.581131
0.576533
0.632282
0.849485
0.973875
0.977749
0.968712
0.948776
0.922305
0.890128
0.849843
0.797347
0.72834
0.642755
0.53697
0.437849
0.42729
0.456855
0.559892
0.714831
0.808355
0.807528
0.790131
0.787819
0.828549
0.93227
0.961324
0.96092
0.955108
0.944496
0.931128
0.915517
0.897687
0.879557
0.863368
0.849318
0.839424
0.838163
0.839404
0.845659
0.874125
0.938861
0.971378
0.971831
0.965707
0.951613
0.930645
0.903797
0.870772
0.831978
0.781638
0.746478
0.413192
0.556666
0.606267
0.587106
0.534942
0.496253
0.494554
0.544707
0.720109
0.910519
0.983724
0.985728
0.976429
0.941853
0.839529
0.662874
0.588663
0.602678
0.663446
0.844198
0.952971
0.953575
0.932558
0.888636
0.845891
0.818611
0.776455
0.665321
0.506759
0.499664
0.521921
0.539129
0.600587
0.830394
0.980222
0.990014
0.985032
0.970116
0.945712
0.909603
0.851443
0.745437
0.596902
0.468411
0.450929
0.492975
0.606807
0.727538
0.722716
0.67514
0.680978
0.824407
0.964079
0.972292
0.962702
0.940205
0.909459
0.871344
0.82218
0.755389
0.667141
0.561144
0.447286
0.397656
0.413471
0.48149
0.638637
0.800507
0.881129
0.900563
0.905196
0.918481
0.93828
0.952653
0.953551
0.947225
0.934288
0.919181
0.903866
0.888628
0.873797
0.860282
0.848558
0.839235
0.832367
0.82946
0.829677
0.8336
0.849713
0.907715
0.961593
0.966533
0.960685
0.945117
0.921002
0.889924
0.851598
0.808101
0.75314
0.721978
0.28863
0.313813
0.329689
0.335619
0.336284
0.338047
0.355695
0.417618
0.549723
0.762521
0.943707
0.962646
0.947761
0.881592
0.708947
0.548396
0.574079
0.652002
0.723962
0.865764
0.92486
0.910932
0.852283
0.762366
0.689677
0.642849
0.569949
0.436272
0.433577
0.53524
0.663448
0.643796
0.650063
0.776746
0.962095
0.983468
0.977683
0.959074
0.92839
0.882086
0.803293
0.659531
0.481332
0.422416
0.454594
0.589672
0.770004
0.838248
0.82618
0.76959
0.744967
0.839934
0.958835
0.96651
0.955507
0.929748
0.89389
0.848113
0.786679
0.701734
0.593173
0.470576
0.380165
0.373318
0.405241
0.515852
0.690063
0.847945
0.921873
0.947822
0.955675
0.957058
0.956377
0.953056
0.941756
0.924103
0.904993
0.889901
0.879071
0.870632
0.862845
0.854654
0.845817
0.837733
0.831392
0.826868
0.826439
0.82899
0.839919
0.882248
0.948685
0.960445
0.954935
0.938052
0.910568
0.874881
0.831159
0.783759
0.724326
0.691238
0.272909
0.276871
0.280787
0.28441
0.28795
0.292937
0.316564
0.396072
0.597626
0.809257
0.91752
0.921576
0.885649
0.758392
0.527248
0.48255
0.597505
0.805255
0.886025
0.904006
0.897197
0.843291
0.733011
0.604005
0.505634
0.432823
0.361014
0.350188
0.413607
0.655824
0.79827
0.767671
0.719522
0.788824
0.950959
0.975797
0.968375
0.944923
0.905969
0.844294
0.736716
0.553646
0.404987
0.411085
0.487941
0.730468
0.870372
0.885124
0.873941
0.828441
0.799174
0.866097
0.95618
0.960432
0.946842
0.916768
0.87451
0.818479
0.740709
0.636088
0.508155
0.385969
0.342462
0.353974
0.40606
0.535187
0.70661
0.863074
0.936533
0.956112
0.958253
0.957047
0.953581
0.941726
0.918568
0.894149
0.878239
0.873186
0.870726
0.867836
0.863371
0.856311
0.845548
0.836328
0.83116
0.827173
0.825959
0.82721
0.835037
0.865361
0.934596
0.953527
0.948452
0.930295
0.899147
0.858501
0.809435
0.758318
0.692539
0.653259
0.271191
0.27179
0.272719
0.27398
0.275527
0.278935
0.295354
0.353309
0.518315
0.736503
0.839017
0.832061
0.754646
0.560078
0.39623
0.427606
0.610657
0.825619
0.878749
0.877108
0.831136
0.723931
0.573789
0.431447
0.335856
0.288585
0.282903
0.315461
0.441728
0.766483
0.886632
0.858708
0.791859
0.825803
0.949414
0.967796
0.956732
0.926053
0.875445
0.791329
0.651637
0.4468
0.371712
0.410472
0.565796
0.826889
0.905222
0.906312
0.895343
0.85805
0.837136
0.890839
0.954164
0.954051
0.936369
0.900763
0.85013
0.779805
0.682173
0.557719
0.4171
0.325522
0.31785
0.338723
0.409658
0.538309
0.698996
0.859368
0.93069
0.948135
0.951382
0.950191
0.942337
0.92096
0.892399
0.877062
0.874892
0.87425
0.873156
0.870155
0.862323
0.848118
0.83399
0.83192
0.837067
0.84015
0.837413
0.832963
0.837009
0.855838
0.920038
0.945905
0.941253
0.921806
0.886719
0.840811
0.786178
0.730338
0.655734
0.608808
0.271024
0.271114
0.271276
0.271506
0.271922
0.272921
0.278182
0.302657
0.379038
0.549005
0.683455
0.6571
0.544644
0.37051
0.330084
0.375486
0.534748
0.727827
0.798227
0.784722
0.700933
0.561267
0.405781
0.295038
0.242814
0.232451
0.241752
0.296194
0.487281
0.831858
0.939203
0.920863
0.86513
0.883916
0.955456
0.959711
0.941044
0.898982
0.829716
0.714922
0.541095
0.361011
0.350231
0.412906
0.639939
0.881429
0.921067
0.91864
0.905723
0.871998
0.862896
0.91103
0.951544
0.946889
0.923562
0.880764
0.818862
0.729821
0.610981
0.467762
0.335762
0.292162
0.298978
0.332698
0.40808
0.511201
0.645333
0.799104
0.900134
0.93072
0.935544
0.933627
0.921502
0.895431
0.877777
0.876373
0.876387
0.875109
0.871213
0.862013
0.843572
0.828771
0.829957
0.839917
0.86199
0.868446
0.865131
0.853242
0.846232
0.857901
0.906143
0.93742
0.933304
0.912364
0.87297
0.821364
0.760316
0.698063
0.613322
0.559923
0.270996
0.270962
0.270879
0.270718
0.270438
0.270024
0.270349
0.276592
0.296205
0.355787
0.45575
0.421377
0.345078
0.28865
0.288834
0.323037
0.425628
0.567247
0.636918
0.617539
0.517412
0.38729
0.27798
0.216474
0.193963
0.192899
0.210201
0.2795
0.506801
0.85827
0.960321
0.960172
0.945493
0.949513
0.958638
0.948933
0.91593
0.855842
0.758049
0.607852
0.411217
0.308828
0.328522
0.41979
0.679183
0.904584
0.930286
0.925259
0.907827
0.879229
0.881629
0.928218
0.94781
0.938235
0.907259
0.855041
0.777516
0.666504
0.525316
0.371675
0.279771
0.271776
0.286873
0.330504
0.394751
0.47425
0.586951
0.735077
0.855375
0.90188
0.910718
0.908511
0.894913
0.878199
0.876346
0.876247
0.872893
0.866109
0.852889
0.830394
0.819307
0.823759
0.840396
0.868541
0.8851
0.886277
0.883987
0.874206
0.858905
0.863413
0.897204
0.928448
0.924591
0.901668
0.857475
0.799499
0.730566
0.660404
0.566179
0.509204
0.270939
0.270695
0.27029
0.269662
0.268698
0.267103
0.265189
0.26518
0.267816
0.278884
0.301485
0.287628
0.269412
0.257418
0.25868
0.275175
0.323751
0.395182
0.441574
0.420338
0.342169
0.265515
0.202417
0.167022
0.154825
0.156184
0.179411
0.255495
0.493585
0.854846
0.957629
0.966683
0.964661
0.960707
0.952296
0.926081
0.873584
0.784108
0.652628
0.465391
0.301262
0.277963
0.310671
0.424443
0.687128
0.912215
0.937577
0.930082
0.90737
0.888061
0.899758
0.939232
0.942598
0.926824
0.886281
0.820954
0.722249
0.587248
0.424127
0.288489
0.251227
0.257366
0.282841
0.325526
0.373248
0.433304
0.527744
0.664586
0.793725
0.858055
0.876064
0.877509
0.873659
0.871759
0.870775
0.866234
0.853364
0.829717
0.803368
0.800457
0.809536
0.838211
0.872655
0.888299
0.89181
0.891573
0.88997
0.884132
0.869478
0.869452
0.893101
0.919864
0.915272
0.889401
0.839605
0.774056
0.695558
0.616917
0.516093
0.4589
0.270536
0.269206
0.267467
0.265291
0.262585
0.259061
0.255663
0.254345
0.253672
0.254792
0.255712
0.248037
0.24083
0.233729
0.233641
0.240096
0.257678
0.280716
0.295678
0.279433
0.236153
0.192593
0.149989
0.126296
0.118601
0.121883
0.148611
0.217411
0.403554
0.787795
0.933424
0.958871
0.958947
0.952338
0.929493
0.882219
0.798924
0.673334
0.502549
0.310543
0.245098
0.254775
0.300041
0.41204
0.665281
0.910413
0.944307
0.93611
0.911205
0.900444
0.918274
0.941651
0.936228
0.911169
0.858297
0.774552
0.650828
0.488458
0.318289
0.238327
0.235416
0.250267
0.280748
0.313059
0.34578
0.393059
0.474204
0.5971
0.727228
0.806597
0.839355
0.852929
0.860005
0.859711
0.852624
0.830615
0.794153
0.765896
0.766074
0.783385
0.828088
0.872251
0.889447
0.893044
0.893255
0.892938
0.891717
0.887552
0.875892
0.874819
0.892285
0.912128
0.905414
0.875216
0.818544
0.743848
0.65463
0.568018
0.464473
0.41017
0.267014
0.260163
0.253306
0.247204
0.241663
0.236114
0.231693
0.229953
0.228053
0.227338
0.223939
0.215203
0.209788
0.205227
0.206194
0.209923
0.216249
0.220987
0.22029
0.2042
0.172516
0.140387
0.108049
0.0910276
0.0872673
0.0918655
0.117659
0.172752
0.315916
0.670758
0.873363
0.930907
0.937296
0.923205
0.879302
0.799918
0.678608
0.508946
0.31493
0.219106
0.218466
0.240984
0.288057
0.391316
0.644347
0.903643
0.948425
0.944562
0.923998
0.918087
0.934135
0.939765
0.927215
0.888275
0.819991
0.712427
0.560359
0.371133
0.238447
0.217243
0.225594
0.248492
0.273687
0.293808
0.316658
0.357251
0.429292
0.536979
0.662621
0.75595
0.806763
0.832585
0.836817
0.829226
0.803357
0.760073
0.722324
0.720608
0.742345
0.801856
0.863968
0.887985
0.8928
0.893202
0.893053
0.89273
0.891658
0.887848
0.879041
0.879026
0.893206
0.905174
0.894923
0.858553
0.79326
0.707852
0.607931
0.515277
0.413609
0.363847
0.237246
0.202938
0.189489
0.186743
0.185933
0.184333
0.182082
0.180705
0.177364
0.175247
0.171789
0.166817
0.166736
0.166815
0.169768
0.171354
0.172312
0.169922
0.162663
0.145201
0.120636
0.0985397
0.0746145
0.0636479
0.0631814
0.0685391
0.0889735
0.128754
0.22963
0.497643
0.762478
0.864701
0.879249
0.851514
0.779859
0.661315
0.49264
0.294375
0.196414
0.188662
0.202627
0.22734
0.265877
0.359906
0.603809
0.88272
0.948463
0.950685
0.944
0.939064
0.9407
0.934572
0.91044
0.855865
0.76655
0.631842
0.445296
0.260028
0.203403
0.206511
0.223577
0.245
0.259514
0.270561
0.288543
0.326391
0.39115
0.481791
0.593841
0.695613
0.75988
0.787101
0.786507
0.765629
0.72371
0.680899
0.670431
0.689665
0.752851
0.839915
0.881584
0.890878
0.890768
0.890311
0.890573
0.890719
0.889949
0.886694
0.881308
0.882411
0.894657
0.898524
0.883432
0.838092
0.76248
0.665562
0.55622
0.46039
0.364773
0.320072
0.024622
0.0480219
0.0670182
0.0820525
0.0929176
0.0999043
0.102182
0.102001
0.0992242
0.101536
0.104673
0.108244
0.113391
0.116457
0.116807
0.114551
0.111203
0.106198
0.10004
0.0889059
0.0754212
0.0626637
0.0485427
0.0451244
0.0471243
0.0526761
0.0658655
0.0896462
0.146659
0.302273
0.548473
0.720636
0.751068
0.706433
0.60189
0.430855
0.249405
0.16642
0.160163
0.169945
0.185751
0.203825
0.236964
0.320268
0.54358
0.836902
0.940028
0.949849
0.948587
0.944598
0.939057
0.922609
0.880797
0.806336
0.690349
0.521129
0.306449
0.196511
0.191154
0.203573
0.222645
0.234082
0.23886
0.245043
0.26214
0.299616
0.356624
0.427893
0.51554
0.603922
0.667052
0.69703
0.693799
0.667599
0.631827
0.618113
0.631579
0.685166
0.785847
0.861222
0.88422
0.884626
0.88432
0.885123
0.887462
0.889075
0.888961
0.887146
0.884754
0.886653
0.894875
0.891588
0.868255
0.812104
0.72356
0.615342
0.498708
0.403156
0.317444
0.277802
0.00167074
0.00609136
0.0114964
0.0172282
0.0225152
0.026324
0.0284092
0.0305464
0.0334996
0.0385459
0.0435295
0.0482639
0.0512757
0.0522751
0.0513022
0.049783
0.0490295
0.0488903
0.0483686
0.0450025
0.0396095
0.0352684
0.0332107
0.0350821
0.0392518
0.043827
0.0503162
0.0605973
0.0825037
0.143849
0.27426
0.450761
0.498777
0.435893
0.304016
0.176642
0.13143
0.128826
0.138043
0.147805
0.157044
0.170884
0.202144
0.272639
0.456129
0.75321
0.910903
0.939781
0.942535
0.938609
0.926686
0.893427
0.830775
0.728322
0.578841
0.362801
0.199439
0.178454
0.187713
0.203912
0.213932
0.21391
0.213495
0.218484
0.238137
0.276026
0.323421
0.374381
0.433926
0.495168
0.543865
0.57358
0.573828
0.562745
0.555895
0.566218
0.613334
0.704601
0.807517
0.860517
0.870148
0.871981
0.873234
0.877286
0.883487
0.887476
0.888887
0.88918
0.889353
0.891383
0.892647
0.88248
0.846884
0.776624
0.673676
0.555634
0.434374
0.343497
0.270906
0.2364
0.00010496
0.000561726
0.00124463
0.0020413
0.00296521
0.00393881
0.0048823
0.00596871
0.00733842
0.00906644
0.0106604
0.012012
0.0129485
0.0136303
0.0140839
0.0148775
0.0161125
0.0176536
0.0191059
0.0203225
0.0218408
0.0240169
0.0279082
0.0328807
0.0373101
0.0401091
0.043002
0.0471063
0.0542723
0.0708913
0.100937
0.142352
0.159698
0.137688
0.10806
0.0966905
0.0985646
0.105416
0.113741
0.117154
0.12193
0.133956
0.162436
0.219078
0.355774
0.626499
0.840808
0.906203
0.920739
0.916296
0.891518
0.836507
0.744962
0.608309
0.406933
0.209234
0.168668
0.174947
0.188398
0.194997
0.192724
0.187055
0.18605
0.193578
0.217765
0.254752
0.290388
0.323129
0.361155
0.401116
0.434806
0.461347
0.471065
0.479042
0.495842
0.537786
0.61489
0.717408
0.797206
0.832873
0.844562
0.848428
0.852784
0.86304
0.876265
0.88449
0.887824
0.889567
0.89065
0.890937
0.886829
0.86736
0.815361
0.728654
0.611604
0.485864
0.363722
0.283237
0.225809
0.196941
6.57124e-06
4.13422e-05
0.000105663
0.000200915
0.000331278
0.000509575
0.000706598
0.00094995
0.00126315
0.00166521
0.00208937
0.0025022
0.00289381
0.00330145
0.00378736
0.00465931
0.00591803
0.00720404
0.00941601
0.0131094
0.0179521
0.0237463
0.0299696
0.0347534
0.0374115
0.0388846
0.0404321
0.0426294
0.0454543
0.0492608
0.0538324
0.0599356
0.0646981
0.0684902
0.071529
0.0747183
0.079145
0.0834825
0.0862566
0.0858987
0.0892684
0.100144
0.123719
0.165965
0.256188
0.459411
0.715758
0.825336
0.858781
0.8537
0.811966
0.729259
0.602756
0.411935
0.213873
0.160868
0.164654
0.174736
0.179241
0.172274
0.161466
0.15672
0.158708
0.171954
0.201056
0.23413
0.25658
0.275218
0.299288
0.326763
0.352733
0.377558
0.39485
0.41771
0.455711
0.521514
0.607461
0.692235
0.754005
0.784507
0.796193
0.802887
0.813726
0.835402
0.860638
0.876934
0.883982
0.887116
0.888109
0.886838
0.874916
0.839984
0.768995
0.66481
0.535538
0.404278
0.288547
0.225073
0.183279
0.161227
3.8257e-07
2.78051e-06
8.34668e-06
1.85949e-05
3.42087e-05
5.86721e-05
9.09455e-05
0.000139412
0.000207695
0.000296692
0.000403151
0.000528156
0.000689368
0.000941475
0.00134655
0.00216773
0.00420587
0.00744616
0.0119135
0.0179483
0.0251214
0.0315381
0.0355855
0.0368238
0.0376063
0.0385609
0.0400428
0.0422411
0.0450743
0.0478758
0.0508679
0.0541309
0.0575294
0.0607316
0.0635174
0.065491
0.0668496
0.0665983
0.0654527
0.0648879
0.0677581
0.0760891
0.0930388
0.121278
0.174196
0.291947
0.498768
0.662072
0.724906
0.718708
0.658072
0.539902
0.360693
0.196987
0.1537
0.155857
0.162096
0.163415
0.152492
0.134989
0.12697
0.127253
0.134642
0.154235
0.186116
0.210894
0.220111
0.228513
0.243641
0.263293
0.283979
0.308372
0.330407
0.365174
0.418894
0.490028
0.558829
0.634444
0.685429
0.702272
0.709091
0.72094
0.744262
0.783107
0.826668
0.857012
0.871049
0.877358
0.878354
0.872751
0.847947
0.794861
0.702377
0.582977
0.442082
0.309549
0.214407
0.173385
0.145805
0.131283
2.11455e-08
1.71631e-07
6.01216e-07
1.50055e-06
2.98595e-06
5.63223e-06
9.89376e-06
1.76432e-05
3.07869e-05
4.9893e-05
7.79651e-05
0.000122848
0.000200421
0.000376134
0.000958465
0.00249433
0.00569737
0.0112748
0.019381
0.0289588
0.0363464
0.0382014
0.037941
0.0371055
0.0375686
0.03925
0.0422644
0.0458327
0.0499525
0.0529138
0.0556139
0.0580502
0.060897
0.0633071
0.0652575
0.0651543
0.0628584
0.0594233
0.0568563
0.0566829
0.0586493
0.0643492
0.0757651
0.0919807
0.117366
0.166953
0.260193
0.387484
0.475725
0.466116
0.381966
0.254347
0.166742
0.146525
0.147552
0.149515
0.146331
0.128484
0.108406
0.0975345
0.096988
0.102144
0.115606
0.139354
0.170315
0.182016
0.179308
0.179924
0.188476
0.202143
0.218225
0.242662
0.269136
0.313782
0.372171
0.425265
0.472644
0.548187
0.576673
0.569261
0.570342
0.592435
0.632301
0.690911
0.75975
0.812411
0.838221
0.849579
0.850158
0.838445
0.797034
0.723412
0.610603
0.476773
0.323977
0.21026
0.153778
0.132668
0.115812
0.108005
1.09781e-09
1.01529e-08
3.9933e-08
1.08751e-07
2.38069e-07
5.1031e-07
1.06957e-06
2.36302e-06
5.24255e-06
1.06999e-05
2.1072e-05
4.60278e-05
0.000129536
0.000392369
0.00120324
0.00345787
0.00826833
0.0165838
0.0283057
0.0388949
0.0412993
0.0391187
0.0358925
0.0361518
0.0381681
0.0419282
0.0459458
0.0502676
0.0555513
0.0607038
0.0654586
0.0689517
0.0723268
0.0738108
0.0736239
0.0718652
0.0665495
0.0589879
0.054461
0.0543228
0.0561397
0.0625484
0.0727827
0.0841928
0.0966578
0.112488
0.133657
0.158844
0.184654
0.183021
0.159421
0.142362
0.138338
0.138761
0.137524
0.12523
0.0995349
0.0797153
0.0712154
0.0702565
0.0741846
0.0837417
0.0997251
0.124339
0.148387
0.145422
0.134214
0.12921
0.133522
0.142657
0.156001
0.182121
0.21187
0.260664
0.308517
0.334744
0.367021
0.435856
0.42788
0.402566
0.404415
0.433832
0.476322
0.544978
0.643074
0.725662
0.768558
0.79018
0.79145
0.771629
0.709497
0.617689
0.48265
0.328828
0.193014
0.135873
0.113967
0.103759
0.0939784
0.0913588
5.50035e-11
5.51807e-10
2.36045e-09
7.01576e-09
1.73663e-08
4.46366e-08
1.27611e-07
3.9164e-07
1.11849e-06
3.08353e-06
9.99621e-06
3.34291e-05
0.000111657
0.000366657
0.00116856
0.00359164
0.0093008
0.0199193
0.0346875
0.0420522
0.039816
0.0338744
0.0327784
0.0356354
0.0402716
0.0439208
0.0474301
0.0515364
0.057219
0.0649056
0.0729878
0.0796534
0.0857398
0.0886162
0.0877589
0.0834528
0.0730352
0.0609445
0.0554209
0.0556978
0.063356
0.0783922
0.090856
0.0981542
0.101679
0.105941
0.111926
0.117779
0.123953
0.128188
0.129866
0.129979
0.128223
0.123013
0.100318
0.068206
0.0531562
0.0489681
0.04974
0.0537756
0.0602167
0.069604
0.0847111
0.106302
0.115954
0.105967
0.0899624
0.0833726
0.0858373
0.0921024
0.103596
0.129394
0.157173
0.202636
0.232441
0.238539
0.260201
0.305401
0.280447
0.253023
0.258512
0.284232
0.312981
0.366501
0.465289
0.571114
0.635793
0.672935
0.676922
0.65005
0.568968
0.45801
0.292359
0.164694
0.111938
0.0975895
0.0891172
0.083877
0.0796033
0.0805828
2.57787e-12
2.75282e-11
1.28912e-10
4.3896e-10
1.40468e-09
6.17712e-09
3.70211e-08
1.88934e-07
7.75774e-07
2.93933e-06
1.0702e-05
3.78118e-05
0.000129999
0.000435222
0.00141173
0.00439436
0.0113791
0.0242074
0.0389848
0.0406073
0.0329906
0.0276621
0.0303751
0.0369021
0.0415006
0.0430303
0.0442393
0.0479071
0.0557267
0.0670357
0.0786709
0.0881684
0.0963753
0.0998896
0.098309
0.0904687
0.0745265
0.0606896
0.0551361
0.0566991
0.0773528
0.0975637
0.106155
0.108849
0.110952
0.113068
0.11512
0.117508
0.119631
0.121291
0.12062
0.115262
0.0985346
0.0715988
0.0445096
0.0338084
0.0327738
0.0353638
0.0412324
0.0470748
0.0518371
0.0582825
0.0698391
0.0829594
0.0812654
0.0693467
0.0568862
0.0524665
0.0537093
0.0575599
0.0659296
0.0858574
0.105916
0.141959
0.156015
0.153463
0.166346
0.188697
0.164451
0.14763
0.151908
0.165868
0.178748
0.204964
0.263729
0.344016
0.416227
0.469534
0.476367
0.443594
0.341547
0.224659
0.120183
0.0890343
0.0800132
0.0760166
0.0720884
0.0707916
0.0710791
0.0760201
1.14562e-13
1.30684e-12
7.02764e-12
3.0609e-11
1.75991e-10
1.63296e-09
1.61854e-08
1.21356e-07
5.42798e-07
2.15619e-06
8.02213e-06
2.87724e-05
0.000100737
0.000344877
0.00115028
0.00371191
0.0103816
0.023621
0.0379601
0.0368409
0.0250812
0.0232487
0.0291869
0.0372398
0.0380852
0.0366461
0.0369226
0.0419842
0.0539636
0.0699935
0.0855671
0.0970811
0.105417
0.106976
0.102928
0.0887265
0.0690931
0.0539857
0.048061
0.0590852
0.0897406
0.105895
0.11032
0.11004
0.108602
0.108432
0.109088
0.109978
0.110257
0.106685
0.0939335
0.0703887
0.0478015
0.0338749
0.0259584
0.0241118
0.0256724
0.031354
0.0401142
0.0452797
0.0473206
0.0502254
0.0564376
0.0587138
0.0543211
0.0459947
0.0405074
0.0389355
0.0395709
0.0414065
0.0453697
0.0556495
0.0657983
0.0874293
0.0925627
0.0901283
0.096976
0.105675
0.0930256
0.0846278
0.0845911
0.0886857
0.0918596
0.0994242
0.11835
0.142366
0.165413
0.191345
0.190251
0.163753
0.113322
0.0827515
0.0660856
0.0630642
0.0615889
0.0609796
0.0614648
0.0637839
0.0678654
0.0769193
5.07269e-15
6.35715e-14
4.49649e-13
3.71053e-12
4.74043e-11
6.72148e-10
7.93906e-09
7.06223e-08
3.83156e-07
1.60115e-06
6.13832e-06
2.25142e-05
8.02315e-05
0.00027838
0.000939953
0.00307276
0.00915344
0.0221889
0.0353674
0.0317784
0.0194225
0.0194445
0.0275132
0.0346758
0.0330471
0.0301038
0.0308582
0.037631
0.0537244
0.0755649
0.0945598
0.106445
0.111909
0.110261
0.100139
0.0787922
0.0542268
0.0380301
0.0348988
0.0624983
0.0911641
0.100127
0.101214
0.0937378
0.0879847
0.0861399
0.0847537
0.0825742
0.0781127
0.0681228
0.0541316
0.0437208
0.0379916
0.031741
0.0245931
0.0211521
0.0233233
0.0306139
0.0411372
0.0452279
0.0451429
0.0454181
0.0463179
0.0444795
0.0406533
0.0373751
0.0354665
0.0349636
0.0354567
0.036602
0.0387596
0.0425011
0.045196
0.0515131
0.0531566
0.0547062
0.0602868
0.0634967
0.058097
0.0517202
0.0474558
0.0459576
0.0446734
0.0448259
0.0478669
0.0515245
0.0528134
0.0551023
0.0548261
0.0524062
0.0486547
0.04693
0.0463214
0.0476703
0.0497883
0.0535568
0.0584866
0.0642203
0.0711204
0.0846045
2.59586e-16
4.08064e-15
5.22159e-14
8.82993e-13
1.59525e-11
2.43366e-10
2.98946e-09
2.84262e-08
1.99893e-07
8.84982e-07
3.49512e-06
1.31459e-05
4.81158e-05
0.000171884
0.000599365
0.00202076
0.00651174
0.0177603
0.0301865
0.0283292
0.017816
0.0162765
0.0234072
0.0305834
0.0291349
0.0257599
0.0264299
0.0340428
0.054929
0.0825837
0.103383
0.113045
0.114317
0.107346
0.0869458
0.0557783
0.0297169
0.0189339
0.0189356
0.0435021
0.0684155
0.0799888
0.0817299
0.0710002
0.0622707
0.0577971
0.0551606
0.0537059
0.0532129
0.0521637
0.0501319
0.0475847
0.046299
0.0428499
0.0320515
0.0209239
0.0220997
0.0298101
0.0420169
0.0451701
0.0442489
0.0432255
0.0422561
0.039762
0.0364409
0.0349819
0.0343549
0.0354694
0.0371994
0.0378023
0.038604
0.0390719
0.0387898
0.0388816
0.0398297
0.0431419
0.0483899
0.0470776
0.039714
0.0307177
0.0248711
0.022313
0.0207935
0.0205116
0.0214981
0.022976
0.0244852
0.0261593
0.0279873
0.0300898
0.0326027
0.0359672
0.0397941
0.0440765
0.0489294
0.0544202
0.0616592
0.0704393
0.0804895
0.0962646
2.09336e-17
4.93159e-16
1.11772e-14
2.48426e-13
4.57475e-12
7.02842e-11
8.90325e-10
9.08759e-09
7.3459e-08
4.25514e-07
1.80705e-06
7.05414e-06
2.65186e-05
9.7104e-05
0.000347299
0.00120443
0.00401333
0.0120879
0.0232691
0.0234668
0.0160371
0.0129131
0.0177804
0.0261397
0.0263833
0.0230781
0.0228556
0.0306983
0.056376
0.0899092
0.10957
0.115332
0.111282
0.0950756
0.0603035
0.0268819
0.0123408
0.00845957
0.00910343
0.0167064
0.0285474
0.044738
0.0575726
0.0607062
0.0547321
0.0502527
0.0485675
0.0487082
0.0511914
0.0534692
0.055377
0.0575626
0.0573867
0.0542255
0.0423769
0.022156
0.0199224
0.0267501
0.0411126
0.0452693
0.0440398
0.0430173
0.0421964
0.0393634
0.0357473
0.0357196
0.0381107
0.0446395
0.0534724
0.0565506
0.055754
0.0511773
0.0448264
0.0408202
0.0432541
0.0474174
0.0461845
0.032433
0.0197618
0.0117237
0.00872312
0.00848579
0.00908107
0.0104958
0.0124228
0.0144463
0.0171872
0.0205921
0.0241041
0.0277521
0.0317011
0.0359245
0.0407133
0.046045
0.0525235
0.0604367
0.0702896
0.0803661